<VTKFile type="ImageData">
<ImageData WholeExtent="0 10 0 10 0 0" Origin="0.1 0.1 0" Spacing="0.001 0.001 0">
<Piece Extent="0 10 0 10 0 0">
<PointData>
<DataArray Name="T" NumberOfComponents="1" format="ascii" type="Float64">
300 807.692 699.311 620.48 572.906 542.791 519.954 501.659 488.608 481.831 481.831 300 806.645 699.361 620.534 572.935 542.804 519.962 501.668 488.619 481.842 481.831 300 806.645 699.361 620.534 572.935 542.804 519.962 501.668 488.619 481.842 481.831 300 806.645 699.361 620.534 572.935 542.804 519.962 501.668 488.619 481.842 481.831 300 806.645 699.361 620.534 572.935 542.804 519.962 501.668 488.619 481.842 481.831 300 806.645 699.361 620.534 572.935 542.804 519.962 501.668 488.619 481.842 481.831 300 806.645 699.361 620.534 572.935 542.804 519.962 501.668 488.619 481.842 481.831 300 806.645 699.361 620.534 572.935 542.804 519.962 501.668 488.619 481.842 481.831 300 806.645 699.361 620.534 572.935 542.804 519.962 501.668 488.619 481.842 481.831 300 806.645 699.361 620.534 572.935 542.804 519.962 501.668 488.619 481.842 481.831 300 807.692 699.311 620.48 572.906 542.791 519.954 501.659 488.608 481.831 481.831 
</DataArray>
</PointData>
</Piece>
</ImageData>
</VTKFile>
