<?xml version="1.0"?>
<VTKFile type="ImageData" version="0.1" byte_order="LittleEndian">
<ImageData WholeExtent="0 100 0 99 0 0" Origin="0 0 0" Spacing="0.0001 0.0151515 1">
<Piece Extent="0 100 0 99 0 0">
<PointData Scalars="T">
<DataArray type="Float64" Name="T" NumberOfComponents="1" format="ascii">
300 300 300 300 300 300 300 300 300 300 300 300 300 300 300 300 300 300 300 300 300 300 300 300 300 300 300 300 300 300 300 300 300 300 300 300 300 300 300 300 300 300 300 300 300 300 300 300 300 300 300 300 300 300 300 300 300 300 300 300 300 300 300 300 300 300 300 300 300 300 300 300 300 300 300 300 300 300 300 300 300 300 300 300 300 300 300 300 300 300 300 300 300 300 300 300 300 300 300 300 300 
2433.71 2136.33 1855.12 1595.69 1361.93 1156.06 978.69 829.126 705.629 605.735 526.555 465.037 418.179 383.18 357.542 339.121 326.138 317.16 311.07 307.017 304.37 302.673 301.607 300.948 300.55 300.313 300.175 300.096 300.052 300.027 300.014 300.007 300.004 300.002 300.001 300 300 300 300 300 300 300 300 300 300 300 300 300 300 300 300 300 300 300 300 300 300 300 300 300 300 300 300 300 300 300 300 300 300 300 300 300 300 300 300 300 300 300 300 300 300 300 300 300 300 300 300 300 300 300 300 300 300 300 300 300 300 300 300 300 300 
2498 2307.66 2119.89 1936.87 1760.6 1592.82 1434.95 1288.09 1153.03 1030.19 919.703 821.406 734.899 659.582 594.704 539.405 492.763 453.831 421.67 395.373 374.091 357.041 343.52 332.905 324.654 318.305 313.468 309.819 307.094 305.078 303.602 302.532 301.763 301.217 300.832 300.564 300.378 300.252 300.166 300.108 300.07 300.045 300.028 300.018 300.011 300.007 300.004 300.003 300.002 300.001 300.001 300 300 300 300 300 300 300 300 300 300 300 300 300 300 300 300 300 300 300 300 300 300 300 300 300 300 300 300 300 300 300 300 300 300 300 300 300 300 300 300 300 300 300 300 300 300 300 300 300 300 
2499.94 2350.12 2201.41 2054.89 1911.6 1772.49 1638.42 1510.16 1388.35 1273.51 1166.01 1066.11 973.934 889.5 812.705 743.352 681.162 625.788 576.828 533.84 496.36 463.907 436.002 412.172 391.961 374.938 360.697 348.864 339.1 331.096 324.58 319.31 315.078 311.701 309.024 306.917 305.27 303.99 303.002 302.245 301.668 301.232 300.904 300.66 300.478 300.345 300.247 300.175 300.124 300.087 300.061 300.042 300.029 300.02 300.014 300.009 300.006 300.004 300.003 300.002 300.001 300.001 300.001 300 300 300 300 300 300 300 300 300 300 300 300 300 300 300 300 300 300 300 300 300 300 300 300 300 300 300 300 300 300 300 300 300 300 300 300 300 300 
2500 2372.24 2245.16 2119.43 1995.7 1874.59 1756.66 1642.44 1532.41 1426.97 1326.47 1231.17 1141.3 1056.97 978.283 905.229 837.765 775.79 719.154 667.668 621.106 579.216 541.725 508.345 478.779 452.725 429.885 409.965 392.681 377.76 364.946 353.997 344.69 336.817 330.193 324.647 320.027 316.198 313.041 310.451 308.336 306.618 305.23 304.114 303.221 302.51 301.947 301.503 301.155 300.883 300.673 300.51 300.384 300.288 300.215 300.16 300.119 300.087 300.064 300.047 300.034 300.025 300.018 300.013 300.009 300.006 300.005 300.003 300.002 300.002 300.001 300.001 300.001 300 300 300 300 300 300 300 300 300 300 300 300 300 300 300 300 300 300 300 300 300 300 300 300 300 300 300 300 
2500 2386.7 2273.87 2161.98 2051.49 1942.83 1836.43 1732.66 1631.88 1534.42 1440.56 1350.54 1264.57 1182.81 1105.36 1032.32 963.703 899.524 839.739 784.277 733.04 685.901 642.71 603.301 567.49 535.082 505.875 479.66 456.227 435.367 416.873 400.544 386.185 373.61 362.642 353.115 344.872 337.771 331.677 326.468 322.035 318.277 315.104 312.436 310.201 308.336 306.788 305.506 304.45 303.583 302.874 302.297 301.828 301.45 301.146 300.902 300.708 300.553 300.43 300.334 300.258 300.198 300.152 300.116 300.088 300.067 300.051 300.038 300.029 300.021 300.016 300.012 300.009 300.006 300.005 300.003 300.002 300.002 300.001 300.001 300.001 300 300 300 300 300 300 300 300 300 300 300 300 300 300 300 300 300 300 300 300 
2500 2397.13 2294.61 2192.8 2092.04 1992.65 1894.96 1799.27 1705.86 1614.98 1526.88 1441.77 1359.81 1281.17 1205.98 1134.32 1066.26 1001.85 941.096 883.99 830.495 780.555 734.092 691.012 651.204 614.546 580.904 550.134 522.087 496.609 473.543 452.732 434.02 417.251 402.274 388.944 377.12 366.666 357.456 349.368 342.29 336.117 330.751 326.102 322.089 318.635 315.673 313.141 310.984 309.153 307.604 306.297 305.199 304.278 303.51 302.871 302.341 301.903 301.542 301.245 301.003 300.805 300.644 300.514 300.408 300.324 300.256 300.202 300.158 300.124 300.097 300.075 300.058 300.045 300.035 300.027 300.02 300.016 300.012 300.009 300.007 300.005 300.004 300.003 300.002 300.002 300.001 300.001 300.001 300 300 300 300 300 300 300 300 300 300 300 300 
2500 2405.12 2310.52 2216.46 2123.24 2031.09 1940.29 1851.07 1763.66 1678.27 1595.1 1514.33 1436.12 1360.61 1287.92 1218.15 1151.37 1087.65 1027.02 969.499 915.088 863.768 815.505 770.249 727.936 688.489 651.822 617.837 586.431 557.49 530.901 506.541 484.289 464.022 445.616 428.948 413.899 400.349 388.186 377.298 367.58 358.932 351.257 344.467 338.476 333.205 328.582 324.538 321.011 317.944 315.284 312.984 311.001 309.296 307.835 306.586 305.521 304.616 303.849 303.201 302.655 302.197 301.812 301.491 301.224 301.001 300.817 300.665 300.54 300.437 300.353 300.284 300.228 300.183 300.146 300.116 300.092 300.073 300.058 300.046 300.036 300.028 300.022 300.017 300.013 300.01 300.008 300.006 300.005 300.004 300.003 300.002 300.002 300.001 300.001 300.001 300 300 300 300 300 
2500 2411.49 2323.21 2235.38 2148.21 2061.93 1976.74 1892.84 1810.43 1729.67 1650.75 1573.81 1499 1426.43 1356.23 1288.49 1223.28 1160.68 1100.73 1043.46 988.9 937.045 887.887 841.406 797.566 756.323 717.621 681.395 647.574 616.077 586.818 559.708 534.653 511.554 490.314 470.832 453.007 436.741 421.933 408.488 396.31 385.309 375.395 366.484 358.493 351.347 344.972 339.3 334.264 329.806 325.869 322.4 319.352 316.681 314.345 312.307 310.535 308.997 307.666 306.517 305.527 304.676 303.948 303.325 302.793 302.342 301.958 301.634 301.36 301.129 300.936 300.773 300.638 300.525 300.431 300.353 300.288 300.235 300.191 300.155 300.125 300.101 300.081 300.065 300.052 300.042 300.033 300.027 300.021 300.017 300.013 300.01 300.008 300.006 300.005 300.004 300.003 300.002 300.001 300.001 300 
2500 2416.73 2333.65 2250.94 2168.79 2087.38 2006.88 1927.46 1849.28 1772.5 1697.27 1623.7 1551.94 1482.09 1414.26 1348.54 1285 1223.71 1164.72 1108.07 1053.8 1001.92 952.434 905.341 860.625 818.261 778.217 740.449 704.908 671.539 640.278 611.058 583.807 558.45 534.907 513.099 492.941 474.352 457.248 441.544 427.159 414.012 402.022 391.113 381.209 372.237 364.129 356.817 350.238 344.331 339.041 334.312 330.095 326.343 323.012 320.061 317.453 315.153 313.129 311.352 309.796 308.435 307.249 306.217 305.32 304.544 303.873 303.294 302.795 302.368 302.001 301.688 301.421 301.193 301 300.837 300.698 300.582 300.484 300.401 300.332 300.274 300.226 300.186 300.153 300.125 300.102 300.083 300.068 300.055 300.044 300.036 300.028 300.023 300.018 300.014 300.01 300.007 300.005 300.002 300 
2500 2421.14 2342.43 2264.05 2186.14 2108.85 2032.34 1956.76 1882.23 1808.91 1736.9 1666.33 1597.32 1529.95 1464.34 1400.55 1338.67 1278.76 1220.86 1165.04 1111.32 1059.73 1010.28 962.973 917.819 874.801 833.901 795.093 758.345 723.616 690.863 660.035 631.078 603.932 578.535 554.823 532.729 512.182 493.115 475.455 459.131 444.073 430.211 417.475 405.797 395.111 385.352 376.458 368.368 361.024 354.372 348.357 342.93 338.043 333.651 329.713 326.187 323.038 320.23 317.732 315.514 313.548 311.81 310.276 308.924 307.736 306.694 305.782 304.984 304.289 303.683 303.158 302.702 302.308 301.967 301.674 301.422 301.205 301.02 300.861 300.726 300.61 300.513 300.429 300.359 300.3 300.25 300.207 300.172 300.142 300.117 300.096 300.078 300.063 300.05 300.039 300.03 300.021 300.014 300.007 300 
2500 2424.91 2349.96 2275.28 2201.01 2127.28 2054.23 1981.97 1910.64 1840.34 1771.19 1703.3 1636.76 1571.67 1508.11 1446.15 1385.88 1327.35 1270.61 1215.71 1162.69 1111.58 1062.39 1015.15 969.853 926.505 885.097 845.613 808.034 772.333 738.478 706.432 676.154 647.599 620.717 595.457 571.765 549.583 528.854 509.517 491.511 474.777 459.252 444.875 431.586 419.325 408.032 397.651 388.125 379.4 371.422 364.142 357.509 351.479 346.005 341.046 336.561 332.512 328.865 325.584 322.638 319.998 317.637 315.529 313.649 311.978 310.493 309.177 308.013 306.984 306.077 305.28 304.579 303.964 303.426 302.956 302.546 302.19 301.88 301.611 301.378 301.177 301.003 300.853 300.724 300.614 300.519 300.438 300.368 300.309 300.258 300.214 300.177 300.145 300.117 300.092 300.071 300.051 300.033 300.016 300 
2500 2428.19 2356.5 2285.04 2213.95 2143.33 2073.3 2003.97 1935.45 1867.84 1801.24 1735.75 1671.46 1608.44 1546.78 1486.55 1427.82 1370.63 1315.06 1261.13 1208.89 1158.38 1109.61 1062.6 1017.37 973.919 932.251 892.359 854.23 817.848 783.19 750.23 718.937 689.276 661.209 634.696 609.691 586.149 564.02 543.256 523.803 505.61 488.624 472.79 458.056 444.368 431.673 419.918 409.052 399.025 389.787 381.29 373.488 366.336 359.791 353.811 348.357 343.39 338.875 334.777 331.064 327.706 324.673 321.939 319.478 317.267 315.283 313.507 311.919 310.501 309.238 308.114 307.116 306.231 305.448 304.756 304.145 303.607 303.134 302.718 302.354 302.035 301.756 301.513 301.301 301.117 300.956 300.817 300.696 300.59 300.499 300.419 300.35 300.289 300.235 300.187 300.144 300.105 300.069 300.034 300 
2500 2431.07 2362.25 2293.64 2225.34 2157.47 2090.12 2023.39 1957.37 1892.17 1827.86 1764.54 1702.29 1641.18 1581.28 1522.66 1465.38 1409.5 1355.07 1302.13 1250.71 1200.86 1152.6 1105.95 1060.93 1017.54 975.792 935.687 897.218 860.376 825.145 791.508 759.441 728.919 699.912 672.387 646.308 621.637 598.336 576.36 555.667 536.213 517.95 500.832 484.813 469.844 455.879 442.87 430.771 419.534 409.115 399.469 390.552 382.322 374.738 367.76 361.348 355.467 350.08 345.154 340.656 336.556 332.823 329.43 326.351 323.561 321.037 318.757 316.701 314.849 313.184 311.689 310.348 309.149 308.077 307.12 306.267 305.509 304.835 304.237 303.707 303.238 302.824 302.459 302.137 301.853 301.604 301.384 301.191 301.021 300.871 300.739 300.622 300.518 300.425 300.341 300.264 300.193 300.126 300.063 300 
2500 2433.63 2367.36 2301.28 2235.47 2170.05 2105.09 2040.69 1976.92 1913.89 1851.66 1790.31 1729.92 1670.56 1612.3 1555.18 1499.28 1444.65 1391.33 1339.36 1288.79 1239.64 1191.95 1145.73 1101.01 1057.8 1016.1 975.933 937.283 900.15 864.526 830.398 797.75 766.562 736.811 708.473 681.518 655.915 631.632 608.632 586.88 566.338 546.965 528.721 511.564 495.454 480.347 466.202 452.976 440.627 429.113 418.394 408.428 399.176 390.599 382.658 375.319 368.543 362.298 356.549 351.265 346.415 341.97 337.902 334.184 330.791 327.699 324.884 322.327 320.006 317.903 316 314.281 312.729 311.331 310.073 308.942 307.927 307.018 306.204 305.476 304.826 304.247 303.73 303.27 302.861 302.498 302.174 301.887 301.631 301.403 301.199 301.017 300.852 300.703 300.567 300.441 300.324 300.213 300.105 300 
2500 2435.93 2371.94 2308.12 2244.56 2181.34 2118.53 2056.23 1994.5 1933.43 1873.09 1813.55 1754.87 1697.13 1640.38 1584.67 1530.07 1476.63 1424.38 1373.36 1323.63 1275.2 1228.11 1182.38 1138.03 1095.08 1053.54 1013.41 974.695 937.403 901.524 867.051 833.974 802.278 771.946 742.957 715.29 688.919 663.817 639.954 617.3 595.821 575.485 556.256 538.097 520.973 504.845 489.676 475.428 462.062 449.542 437.828 426.883 416.671 407.156 398.3 390.071 382.432 375.353 368.8 362.741 357.149 351.992 347.244 342.879 338.87 335.193 331.825 328.745 325.932 323.365 321.026 318.898 316.964 315.209 313.619 312.179 310.877 309.701 308.64 307.684 306.824 306.05 305.355 304.73 304.17 303.667 303.216 302.81 302.446 302.118 301.822 301.553 301.309 301.086 300.879 300.687 300.506 300.333 300.165 300 
2500 2438 2376.08 2314.31 2252.77 2191.54 2130.69 2070.29 2010.42 1951.15 1892.53 1834.65 1777.55 1721.3 1665.96 1611.58 1558.2 1505.88 1454.66 1404.58 1355.67 1307.96 1261.49 1216.28 1172.35 1129.71 1088.39 1048.38 1009.7 972.35 936.326 901.625 868.242 836.165 805.383 775.879 747.636 720.634 694.85 670.261 646.839 624.558 603.388 583.299 564.26 546.237 529.199 513.111 497.939 483.649 470.206 457.577 445.726 434.619 424.223 414.504 405.43 396.968 389.086 381.755 374.943 368.623 362.766 357.344 352.332 347.705 343.437 339.507 335.891 332.569 329.521 326.727 324.169 321.83 319.695 317.746 315.971 314.355 312.886 311.552 310.341 309.243 308.249 307.349 306.534 305.797 305.13 304.526 303.98 303.484 303.034 302.623 302.248 301.903 301.584 301.288 301.009 300.744 300.49 300.243 300 
2500 2439.88 2379.84 2319.93 2260.24 2200.82 2141.75 2083.1 2024.93 1967.3 1910.27 1853.91 1798.28 1743.42 1689.39 1636.24 1584.02 1532.77 1482.54 1433.35 1385.25 1338.26 1292.42 1247.75 1204.26 1161.98 1120.93 1081.11 1042.53 1005.19 969.11 934.274 900.683 868.329 837.204 807.296 778.592 751.074 724.726 699.526 675.454 652.485 630.594 609.757 589.944 571.128 553.279 536.368 520.364 505.237 490.954 477.485 464.798 452.861 441.644 431.116 421.245 412.001 403.356 395.278 387.741 380.715 374.175 368.093 362.443 357.202 352.346 347.85 343.694 339.856 336.316 333.054 330.052 327.291 324.757 322.431 320.3 318.349 316.565 314.934 313.445 312.086 310.847 309.718 308.689 307.751 306.897 306.117 305.406 304.756 304.161 303.614 303.11 302.643 302.207 301.799 301.413 301.045 300.689 300.343 300 
2500 2441.6 2383.27 2325.07 2267.06 2209.31 2151.88 2094.83 2038.21 1982.1 1926.54 1871.6 1817.32 1763.75 1710.96 1658.97 1607.84 1557.61 1508.31 1459.99 1412.67 1366.39 1321.18 1277.05 1234.03 1192.14 1151.39 1111.8 1073.37 1036.12 1000.04 965.144 931.424 898.878 867.499 837.279 808.208 780.273 753.458 727.748 703.125 679.568 657.056 635.567 615.077 595.56 576.992 559.346 542.594 526.709 511.663 497.426 483.971 471.268 459.289 448.005 437.387 427.407 418.036 409.249 401.016 393.312 386.111 379.387 373.115 367.272 361.833 356.777 352.082 347.726 343.69 339.953 336.497 333.304 330.357 327.641 325.138 322.834 320.716 318.77 316.982 315.342 313.838 312.458 311.193 310.033 308.969 307.992 307.094 306.267 305.505 304.799 304.144 303.533 302.959 302.418 301.903 301.409 300.931 300.463 300 
2500 2443.19 2386.43 2329.8 2273.34 2217.12 2161.19 2105.61 2050.44 1995.73 1941.54 1887.91 1834.89 1782.54 1730.89 1680 1629.9 1580.63 1532.23 1484.74 1438.18 1392.59 1348 1304.42 1261.87 1220.38 1179.97 1140.64 1102.41 1065.29 1029.27 994.372 960.588 927.918 896.358 865.903 836.545 808.274 781.077 754.942 729.854 705.795 682.749 660.694 639.611 619.477 600.271 581.969 564.546 547.977 532.238 517.301 503.142 489.733 477.049 465.062 453.746 443.074 433.021 423.56 414.666 406.313 398.477 391.133 384.257 377.827 371.819 366.211 360.982 356.112 351.579 347.365 343.452 339.82 336.454 333.335 330.449 327.781 325.314 323.037 320.935 318.996 317.207 315.558 314.038 312.635 311.341 310.146 309.04 308.016 307.065 306.179 305.351 304.574 303.841 303.145 302.48 301.839 301.216 300.605 300 
2500 2444.65 2389.35 2334.16 2279.13 2224.33 2169.79 2115.58 2061.75 2008.34 1955.41 1903.01 1851.17 1799.95 1749.39 1699.52 1650.4 1602.05 1554.51 1507.82 1462 1417.08 1373.09 1330.05 1287.99 1246.92 1206.85 1167.81 1129.81 1092.85 1056.94 1022.08 988.288 955.551 923.871 893.245 863.666 835.128 807.621 781.134 755.655 731.17 707.663 685.118 663.517 642.841 623.07 604.182 586.158 568.973 552.606 537.032 522.229 508.171 494.835 482.196 470.23 458.911 448.216 438.12 428.598 419.628 411.184 403.245 395.787 388.787 382.225 376.078 370.325 364.947 359.923 355.235 350.863 346.79 342.999 339.473 336.196 333.152 330.327 327.706 325.276 323.023 320.936 319.001 317.208 315.545 314.002 312.57 311.237 309.995 308.836 307.75 306.729 305.765 304.851 303.979 303.142 302.333 301.544 300.768 300 
2500 2446 2392.05 2338.2 2284.51 2231.01 2177.77 2124.83 2072.25 2020.05 1968.31 1917.04 1866.31 1816.16 1766.61 1717.72 1669.52 1622.04 1575.32 1529.4 1484.28 1440.02 1396.63 1354.13 1312.54 1271.89 1232.2 1193.46 1155.71 1118.94 1083.17 1048.4 1014.63 981.872 950.122 919.378 889.635 860.889 833.133 806.357 780.551 755.705 731.804 708.835 686.782 665.628 645.356 625.948 607.385 589.646 572.71 556.557 541.165 526.513 512.576 499.334 486.763 474.84 463.543 452.849 442.734 433.177 424.156 415.647 407.629 400.081 392.981 386.31 380.045 374.169 368.661 363.503 358.677 354.164 349.947 346.01 342.337 338.912 335.72 332.746 329.977 327.399 324.999 322.765 320.684 318.745 316.938 315.25 313.673 312.195 310.808 309.503 308.269 307.099 305.984 304.916 303.887 302.888 301.913 300.953 300 
2500 2447.26 2394.56 2341.96 2289.5 2237.23 2185.2 2133.45 2082.02 2030.97 1980.32 1930.14 1880.44 1831.29 1782.71 1734.74 1687.41 1640.76 1594.83 1549.63 1505.2 1461.57 1418.76 1376.79 1335.69 1295.46 1256.13 1217.72 1180.23 1143.68 1108.07 1073.41 1039.71 1006.97 975.193 944.375 914.516 885.612 857.658 830.647 804.571 779.419 755.182 731.846 709.399 687.827 667.113 647.242 628.196 609.958 592.509 575.829 559.9 544.702 530.213 516.412 503.28 490.795 478.935 467.679 457.005 446.893 437.322 428.27 419.716 411.641 404.023 396.843 390.082 383.719 377.737 372.117 366.84 361.89 357.25 352.902 348.83 345.02 341.456 338.123 335.006 332.094 329.371 326.825 324.444 322.216 320.128 318.171 316.333 314.603 312.972 311.429 309.964 308.57 307.235 305.952 304.711 303.504 302.322 301.157 300 
2500 2448.43 2396.91 2345.47 2294.17 2243.04 2192.14 2141.49 2091.16 2041.17 1991.56 1942.38 1893.67 1845.46 1797.79 1750.69 1704.19 1658.34 1613.15 1568.66 1524.89 1481.87 1439.63 1398.18 1357.54 1317.74 1278.79 1240.7 1203.49 1167.17 1131.75 1097.23 1063.62 1030.93 999.159 968.306 938.37 909.351 881.244 854.044 827.744 802.337 777.813 754.163 731.374 709.434 688.329 668.046 648.569 629.883 611.969 594.812 578.394 562.695 547.697 533.382 519.729 506.72 494.334 482.551 471.352 460.716 450.623 441.054 431.989 423.408 415.292 407.622 400.378 393.543 387.097 381.024 375.304 369.923 364.861 360.104 355.634 351.437 347.497 343.8 340.331 337.076 334.022 331.155 328.463 325.933 323.554 321.313 319.2 317.203 315.312 313.515 311.804 310.167 308.595 307.079 305.608 304.174 302.768 301.379 300 
2500 2449.53 2399.1 2348.76 2298.54 2248.48 2198.63 2149.03 2099.72 2050.73 2002.1 1953.87 1906.08 1858.77 1811.96 1765.68 1719.98 1674.88 1630.41 1586.59 1543.46 1501.03 1459.34 1418.4 1378.23 1338.85 1300.27 1262.51 1225.59 1189.51 1154.29 1119.93 1086.44 1053.83 1022.09 991.233 961.256 932.157 903.936 876.587 850.106 824.486 799.72 775.799 752.713 730.452 709.003 688.354 668.492 649.402 631.07 613.479 596.614 580.457 564.992 550.201 536.067 522.57 509.693 497.417 485.723 474.592 464.007 453.947 444.394 435.329 426.735 418.592 410.882 403.588 396.691 390.175 384.022 378.215 372.738 367.574 362.708 358.125 353.808 349.744 345.918 342.315 338.923 335.727 332.715 329.874 327.192 324.657 322.256 319.978 317.813 315.749 313.775 311.881 310.056 308.29 306.574 304.896 303.248 301.619 300 
2500 2450.56 2401.16 2351.84 2302.64 2253.59 2204.74 2156.11 2107.76 2059.71 2012.01 1964.68 1917.77 1871.29 1825.3 1779.81 1734.86 1690.48 1646.7 1603.53 1561.01 1519.16 1478 1437.55 1397.84 1358.87 1320.67 1283.25 1246.62 1210.8 1175.79 1141.61 1108.25 1075.73 1044.05 1013.22 983.228 954.082 925.778 898.315 871.689 845.893 820.924 796.772 773.429 750.888 729.136 708.163 687.957 668.505 649.794 631.81 614.537 597.962 582.067 566.838 552.256 538.307 524.972 512.234 500.075 488.479 477.427 466.901 456.884 447.357 438.304 429.707 421.548 413.809 406.474 399.527 392.949 386.725 380.838 375.273 370.014 365.045 360.352 355.92 351.734 347.78 344.045 340.515 337.176 334.015 331.021 328.181 325.482 322.912 320.461 318.116 315.866 313.7 311.608 309.578 307.601 305.664 303.759 301.874 300 
2500 2451.53 2403.1 2354.74 2306.5 2258.4 2210.48 2162.78 2115.34 2068.18 2021.35 1974.87 1928.79 1883.12 1837.9 1793.16 1748.93 1705.24 1662.11 1619.56 1577.63 1536.34 1495.7 1455.73 1416.47 1377.91 1340.08 1302.99 1266.66 1231.1 1196.32 1162.32 1129.11 1096.71 1065.11 1034.32 1004.34 975.172 946.815 919.267 892.527 866.589 841.449 817.101 793.538 770.752 748.733 727.473 706.96 687.183 668.131 649.79 632.146 615.187 598.898 583.264 568.269 553.899 540.136 526.966 514.371 502.336 490.843 479.875 469.417 459.45 449.958 440.924 432.332 424.164 416.404 409.037 402.045 395.412 389.123 383.162 377.514 372.164 367.095 362.295 357.749 353.441 349.36 345.49 341.818 338.332 335.019 331.865 328.858 325.987 323.239 320.602 318.064 315.615 313.243 310.936 308.684 306.475 304.298 302.144 300 
2500 2452.45 2404.93 2357.48 2310.14 2262.94 2215.9 2169.08 2122.49 2076.18 2030.18 1984.5 1939.2 1894.29 1849.82 1805.79 1762.25 1719.21 1676.71 1634.77 1593.41 1552.65 1512.51 1473.02 1434.19 1396.03 1358.57 1321.82 1285.79 1250.49 1215.94 1182.13 1149.09 1116.82 1085.31 1054.59 1024.64 995.472 967.086 939.48 912.653 886.601 861.321 836.808 813.055 790.057 767.805 746.29 725.504 705.435 686.075 667.41 649.428 632.118 615.466 599.458 584.081 569.319 555.158 541.584 528.58 516.131 504.221 492.835 481.957 471.57 461.658 452.205 443.196 434.614 426.443 418.668 411.272 404.24 397.557 391.207 385.175 379.446 374.005 368.838 363.931 359.27 354.839 350.627 346.619 342.801 339.162 335.688 332.366 329.185 326.131 323.192 320.357 317.613 314.95 312.354 309.816 307.322 304.863 302.426 300 
2500 2453.31 2406.66 2360.07 2313.58 2267.23 2221.03 2175.03 2129.26 2083.75 2038.53 1993.62 1949.07 1904.89 1861.11 1817.77 1774.88 1732.48 1690.58 1649.22 1608.4 1568.16 1528.51 1489.48 1451.07 1413.31 1376.22 1339.8 1304.07 1269.04 1234.72 1201.12 1168.25 1136.11 1104.72 1074.07 1044.17 1015.03 986.631 958.989 932.099 905.958 880.564 855.913 831.999 808.817 786.36 764.621 743.591 723.261 703.622 684.663 666.374 648.743 631.757 615.405 599.672 584.547 570.015 556.062 542.673 529.835 517.532 505.749 494.472 483.684 473.371 463.517 454.107 445.125 436.556 428.385 420.597 413.175 406.106 399.373 392.963 386.861 381.051 375.52 370.253 365.237 360.457 355.9 351.553 347.401 343.431 339.631 335.988 332.489 329.122 325.873 322.732 319.685 316.72 313.826 310.99 308.202 305.449 302.718 300 
2500 2454.13 2408.3 2362.53 2316.85 2271.29 2225.89 2180.68 2135.68 2090.93 2046.45 2002.28 1958.43 1914.94 1871.84 1829.15 1786.89 1745.09 1703.77 1662.96 1622.68 1582.94 1543.76 1505.17 1467.19 1429.82 1393.08 1356.98 1321.55 1286.79 1252.71 1219.32 1186.63 1154.64 1123.37 1092.82 1062.98 1033.87 1005.49 977.828 950.896 924.688 899.203 874.437 850.387 827.047 804.411 782.474 761.227 740.663 720.773 701.548 682.978 665.052 647.76 631.089 615.028 599.565 584.686 570.379 556.629 543.424 530.749 518.591 506.934 495.764 485.068 474.829 465.033 455.666 446.713 438.158 429.988 422.186 414.739 407.632 400.85 394.379 388.205 382.312 376.689 371.319 366.19 361.287 356.598 352.108 347.805 343.676 339.706 335.884 332.197 328.632 325.176 321.818 318.544 315.343 312.202 309.11 306.053 303.021 300 
2500 2454.91 2409.85 2364.85 2319.94 2275.15 2230.51 2186.04 2141.78 2097.75 2053.98 2010.5 1967.33 1924.51 1882.04 1839.97 1798.32 1757.1 1716.34 1676.06 1636.29 1597.03 1558.32 1520.16 1482.58 1445.59 1409.2 1373.44 1338.3 1303.81 1269.97 1236.79 1204.28 1172.46 1141.32 1110.86 1081.11 1052.05 1023.69 996.03 969.073 942.818 917.261 892.402 868.237 844.761 821.97 799.859 778.419 757.646 737.53 718.063 699.237 681.042 663.467 646.503 630.137 614.359 599.156 584.517 570.428 556.877 543.851 531.336 519.319 507.785 496.722 486.114 475.948 466.21 456.885 447.958 439.417 431.245 423.429 415.955 408.808 401.975 395.44 389.19 383.212 377.491 372.013 366.765 361.733 356.905 352.266 347.803 343.504 339.354 335.343 331.455 327.68 324.004 320.414 316.899 313.445 310.041 306.673 303.331 300 
2500 2455.65 2411.33 2367.07 2322.89 2278.82 2234.9 2191.14 2147.58 2104.24 2061.14 2018.33 1975.81 1933.61 1891.77 1850.29 1809.22 1768.56 1728.33 1688.57 1649.29 1610.5 1572.23 1534.5 1497.31 1460.69 1424.65 1389.2 1354.36 1320.14 1286.54 1253.58 1221.26 1189.6 1158.59 1128.25 1098.58 1069.59 1041.27 1013.62 986.658 960.372 934.762 909.829 885.568 861.977 839.051 816.786 795.176 774.215 753.895 734.21 715.15 696.707 678.873 661.637 644.988 628.917 613.412 598.461 584.054 570.177 556.818 543.966 531.605 519.725 508.311 497.35 486.828 476.732 467.047 457.761 448.859 440.327 432.151 424.318 416.813 409.623 402.733 396.13 389.8 383.73 377.906 372.313 366.939 361.771 356.795 351.997 347.365 342.885 338.545 334.332 330.232 326.233 322.322 318.487 314.714 310.992 307.307 303.647 300 
2500 2456.36 2412.74 2369.18 2325.69 2282.32 2239.08 2196 2153.1 2110.42 2067.97 2025.79 1983.89 1942.3 1901.04 1860.14 1819.62 1779.5 1739.79 1700.52 1661.72 1623.38 1585.55 1548.22 1511.42 1475.17 1439.46 1404.33 1369.78 1335.82 1302.46 1269.72 1237.6 1206.1 1175.24 1145.02 1115.45 1086.52 1058.25 1030.64 1003.68 977.375 951.728 926.736 902.397 878.709 855.667 833.268 811.507 790.377 769.874 749.99 730.717 712.048 693.974 676.486 659.575 643.231 627.443 612.201 597.493 583.308 569.635 556.462 543.776 531.564 519.815 508.514 497.65 487.209 477.178 467.543 458.291 449.409 440.882 432.698 424.842 417.301 410.062 403.111 396.434 390.017 383.848 377.913 372.198 366.69 361.376 356.242 351.276 346.464 341.793 337.25 332.822 328.496 324.26 320.1 316.003 311.958 307.951 303.969 300 
2500 2457.03 2414.08 2371.19 2328.37 2285.66 2243.07 2200.63 2158.38 2116.32 2074.49 2032.92 1991.61 1950.6 1909.91 1869.56 1829.57 1789.96 1750.75 1711.96 1673.62 1635.72 1598.31 1561.38 1524.95 1489.05 1453.68 1418.86 1384.59 1350.9 1317.78 1285.26 1253.33 1222 1191.29 1161.2 1131.73 1102.89 1074.68 1047.1 1020.16 993.851 968.18 943.144 918.743 894.973 871.831 849.315 827.42 806.141 785.472 765.407 745.94 727.063 708.768 691.048 673.892 657.293 641.241 625.725 610.734 596.259 582.289 568.81 555.814 543.286 531.216 519.59 508.397 497.624 487.257 477.285 467.693 458.47 449.601 441.074 432.874 424.99 417.407 410.112 403.092 396.333 389.823 383.547 377.492 371.646 365.994 360.525 355.223 350.077 345.073 340.199 335.44 330.785 326.22 321.732 317.309 312.936 308.603 304.295 300 
2500 2457.67 2415.36 2373.11 2330.93 2288.84 2246.88 2205.06 2163.42 2121.96 2080.73 2039.73 1998.99 1958.54 1918.39 1878.57 1839.09 1799.98 1761.25 1722.92 1685.02 1647.55 1610.54 1574 1537.94 1502.39 1467.34 1432.82 1398.84 1365.41 1332.53 1300.22 1268.49 1237.34 1206.78 1176.82 1147.46 1118.71 1090.57 1063.04 1036.12 1009.82 984.138 959.072 934.621 910.783 887.557 864.939 842.926 821.512 800.694 780.466 760.821 741.753 723.255 705.319 687.937 671.1 654.799 639.025 623.769 609.019 594.766 580.999 567.706 554.877 542.499 530.562 519.052 507.958 497.268 486.969 477.048 467.493 458.29 449.428 440.892 432.671 424.75 417.117 409.759 402.662 395.813 389.199 382.807 376.624 370.636 364.831 359.195 353.714 348.377 343.17 338.079 333.093 328.197 323.379 318.625 313.924 309.261 304.624 300 
2500 2458.28 2416.59 2374.95 2333.37 2291.89 2250.53 2209.3 2168.24 2127.36 2086.69 2046.25 2006.06 1966.14 1926.51 1887.2 1848.22 1809.58 1771.32 1733.44 1695.96 1658.91 1622.29 1586.13 1550.43 1515.21 1480.48 1446.26 1412.56 1379.38 1346.74 1314.65 1283.11 1252.14 1221.74 1191.91 1162.67 1134.01 1105.94 1078.47 1051.59 1025.31 999.622 974.536 950.048 926.155 902.858 880.152 858.034 836.501 815.549 795.172 775.365 756.122 737.435 719.299 701.705 684.646 668.113 652.097 636.589 621.58 607.059 593.016 579.442 566.324 553.652 541.415 529.601 518.198 507.195 496.579 486.338 476.461 466.933 457.744 448.88 440.328 432.076 424.11 416.418 408.987 401.804 394.856 388.129 381.612 375.289 369.149 363.179 357.365 351.695 346.154 340.731 335.412 330.184 325.034 319.949 314.916 309.923 304.955 300 
2500 2458.87 2417.77 2376.71 2335.71 2294.81 2254.02 2213.36 2172.86 2132.53 2092.41 2052.5 2012.84 1973.43 1934.31 1895.48 1856.97 1818.8 1780.98 1743.54 1706.48 1669.82 1633.59 1597.79 1562.44 1527.55 1493.13 1459.2 1425.77 1392.85 1360.44 1328.57 1297.23 1266.43 1236.19 1206.5 1177.38 1148.82 1120.83 1093.42 1066.58 1040.33 1014.65 989.555 965.039 941.103 917.746 894.964 872.755 851.116 830.043 809.531 789.575 770.171 751.311 732.989 715.198 697.93 681.179 664.935 649.19 633.934 619.159 604.854 591.011 577.617 564.663 552.138 540.03 528.33 517.024 506.102 495.551 485.36 475.516 466.007 456.822 447.946 439.369 431.076 423.056 415.296 407.783 400.504 393.446 386.596 379.942 373.47 367.167 361.02 355.017 349.144 343.388 337.737 332.176 326.694 321.277 315.912 310.587 305.287 300 
2500 2459.44 2418.89 2378.39 2337.96 2297.61 2257.37 2217.25 2177.29 2137.5 2097.89 2058.5 2019.34 1980.43 1941.79 1903.43 1865.38 1827.66 1790.27 1753.24 1716.58 1680.32 1644.45 1609.01 1574 1539.43 1505.32 1471.67 1438.51 1405.84 1373.67 1342.01 1310.86 1280.24 1250.16 1220.61 1191.61 1163.15 1135.25 1107.91 1081.12 1054.9 1029.24 1004.14 979.611 955.641 932.234 909.387 887.098 865.365 844.183 823.548 803.457 783.904 764.883 746.388 728.413 710.951 693.994 677.535 661.566 646.077 631.06 616.506 602.405 588.747 575.522 562.721 550.331 538.343 526.744 515.525 504.673 494.177 484.025 474.205 464.705 455.513 446.617 438.003 429.661 421.576 413.738 406.132 398.746 391.567 384.584 377.781 371.148 364.671 358.336 352.132 346.044 340.061 334.169 328.355 322.606 316.909 311.251 305.619 300 
2500 2459.98 2419.97 2380.01 2340.11 2300.29 2260.58 2220.99 2181.54 2142.26 2103.16 2064.26 2025.59 1987.15 1948.97 1911.07 1873.47 1836.17 1799.2 1762.58 1726.31 1690.42 1654.92 1619.82 1585.13 1550.88 1517.06 1483.7 1450.8 1418.38 1386.44 1354.99 1324.04 1293.6 1263.67 1234.27 1205.39 1177.04 1149.23 1121.96 1095.23 1069.05 1043.41 1018.32 993.776 969.782 946.334 923.432 901.074 879.256 857.976 837.231 817.015 797.325 778.155 759.5 741.353 723.708 706.558 689.896 673.714 658.004 642.757 627.964 613.618 599.707 586.223 573.155 560.493 548.227 536.346 524.839 513.695 502.902 492.45 482.326 472.519 463.017 453.808 444.88 436.22 427.817 419.657 411.729 404.019 396.516 389.206 382.077 375.115 368.309 361.646 355.112 348.694 342.38 336.157 330.012 323.932 317.903 311.914 305.95 300 