<VTKFile type="ImageData" version="0.1" byte_order="LittleEndian">
<ImageData WholeExtent="0 100 0 149 0 0" Origin="0 0 0" Spacing="9.90099e-05 0.01 0">
<Piece Extent="0 100 0 149 0 0">
<PointData Scalars="T">
<DataArray Name="Temperature" NumberOfComponents="1" format="ascii" type="Float64">
300 300 300 300 300 300 300 300 300 300 300 300 300 300 300 300 300 300 300 300 300 300 300 300 300 300 300 300 300 300 300 300 300 300 300 300 300 300 300 300 300 300 300 300 300 300 300 300 300 300 300 300 300 300 300 300 300 300 300 300 300 300 300 300 300 300 300 300 300 300 300 300 300 300 300 300 300 300 300 300 300 300 300 300 300 300 300 300 300 300 300 300 300 300 300 300 300 300 300 300 300 517.307 474.893 438.287 407.34 381.729 361 344.598 331.922 322.356 315.311 310.249 306.703 304.281 302.669 301.624 300.964 300.558 300.315 300.173 300.093 300.048 300.025 300.012 300.006 300.003 300.001 300.001 300 300 300 300 300 300 300 300 300 300 300 300 300 300 300 300 300 300 300 300 300 300 300 300 300 300 300 300 300 300 300 300 300 300 300 300 300 300 300 300 300 300 300 300 300 300 300 300 300 300 300 300 300 300 300 300 300 300 300 300 300 300 300 300 300 300 300 300 300 300 300 300 300 300 597.733 556.18 518.503 484.687 454.655 428.27 405.345 385.649 368.922 354.88 343.233 333.687 325.959 319.78 314.899 311.094 308.164 305.937 304.265 303.028 302.123 301.47 301.006 300.679 300.453 300.298 300.194 300.124 300.079 300.049 300.03 300.019 300.011 300.007 300.004 300.002 300.001 300.001 300 300 300 300 300 300 300 300 300 300 300 300 300 300 300 300 300 300 300 300 300 300 300 300 300 300 300 300 300 300 300 300 300 300 300 300 300 300 300 300 300 300 300 300 300 300 300 300 300 300 300 300 300 300 300 300 300 300 300 300 300 300 300 655.921 615.271 577.64 543.04 511.449 482.811 457.039 434.018 413.608 395.652 379.977 366.4 354.735 344.792 336.386 329.338 323.476 318.643 314.691 311.486 308.91 306.857 305.235 303.964 302.978 302.218 301.639 301.201 300.873 300.629 300.449 300.318 300.223 300.156 300.107 300.074 300.05 300.034 300.022 300.015 300.01 300.006 300.004 300.003 300.002 300.001 300.001 300 300 300 300 300 300 300 300 300 300 300 300 300 300 300 300 300 300 300 300 300 300 300 300 300 300 300 300 300 300 300 300 300 300 300 300 300 300 300 300 300 300 300 300 300 300 300 300 300 300 300 300 300 300 702.77 662.939 625.619 590.832 558.575 528.825 501.534 476.639 454.056 433.686 415.418 399.131 384.695 371.977 360.839 351.143 342.756 335.544 329.382 324.15 319.735 316.034 312.95 310.398 308.299 306.584 305.192 304.07 303.17 302.454 301.888 301.444 301.097 300.828 300.621 300.463 300.343 300.253 300.185 300.134 300.097 300.069 300.05 300.035 300.025 300.017 300.012 300.008 300.006 300.004 300.003 300.002 300.001 300.001 300.001 300 300 300 300 300 300 300 300 300 300 300 300 300 300 300 300 300 300 300 300 300 300 300 300 300 300 300 300 300 300 300 300 300 300 300 300 300 300 300 300 300 300 300 300 300 300 742.465 703.371 666.446 631.713 599.179 568.835 540.657 514.604 490.624 468.652 448.612 430.419 413.979 399.193 385.96 374.171 363.721 354.504 346.412 339.345 333.203 327.892 323.323 319.412 316.081 313.259 310.88 308.885 307.222 305.841 304.701 303.766 303.001 302.38 301.878 301.475 301.152 300.895 300.693 300.533 300.408 300.311 300.235 300.177 300.133 300.099 300.074 300.054 300.04 300.029 300.021 300.015 300.011 300.008 300.006 300.004 300.003 300.002 300.001 300.001 300.001 300 300 300 300 300 300 300 300 300 300 300 300 300 300 300 300 300 300 300 300 300 300 300 300 300 300 300 300 300 300 300 300 300 300 300 300 300 300 300 300 777.139 738.715 702.208 667.642 635.03 604.37 575.65 548.845 523.922 500.834 479.528 459.941 442.005 425.645 410.781 397.33 385.207 374.324 364.595 355.932 348.252 341.47 335.506 330.284 325.731 321.778 318.361 315.419 312.897 310.745 308.916 307.369 306.065 304.972 304.059 303.301 302.673 302.155 301.73 301.384 301.102 300.874 300.69 300.542 300.425 300.331 300.257 300.199 300.153 300.117 300.089 300.068 300.051 300.039 300.029 300.022 300.016 300.012 300.009 300.006 300.005 300.003 300.002 300.002 300.001 300.001 300.001 300 300 300 300 300 300 300 300 300 300 300 300 300 300 300 300 300 300 300 300 300 300 300 300 300 300 300 300 300 300 300 300 300 300 808.052 770.239 734.15 699.81 667.231 636.419 607.367 580.062 554.48 530.589 508.35 487.716 468.635 451.049 434.895 420.107 406.616 394.351 383.238 373.205 364.179 356.086 348.858 342.423 336.716 331.673 327.232 323.336 319.931 316.965 314.392 312.167 310.251 308.607 307.202 306.005 304.99 304.131 303.409 302.803 302.296 301.874 301.524 301.235 300.998 300.803 300.643 300.514 300.409 300.324 300.256 300.202 300.158 300.124 300.096 300.075 300.058 300.044 300.034 300.026 300.02 300.015 300.011 300.009 300.006 300.005 300.004 300.003 300.002 300.001 300.001 300.001 300.001 300 300 300 300 300 300 300 300 300 300 300 300 300 300 300 300 300 300 300 300 300 300 300 300 300 300 300 300 836.02 798.77 763.09 729.004 696.526 665.663 636.416 608.775 582.725 558.244 535.301 513.863 493.888 475.33 458.14 442.264 427.644 414.223 401.939 390.73 380.533 371.285 362.924 355.389 348.618 342.554 337.14 332.321 328.047 324.266 320.934 318.006 315.441 313.203 311.255 309.566 308.105 306.847 305.766 304.841 304.052 303.381 302.812 302.332 301.928 301.589 301.305 301.068 300.872 300.71 300.576 300.465 300.375 300.301 300.241 300.192 300.153 300.121 300.096 300.076 300.059 300.046 300.036 300.028 300.022 300.017 300.013 300.01 300.008 300.006 300.004 300.003 300.003 300.002 300.001 300.001 300.001 300.001 300 300 300 300 300 300 300 300 300 300 300 300 300 300 300 300 300 300 300 300 300 300 300 861.605 824.878 789.594 755.776 723.44 692.594 663.242 635.379 608.995 584.074 560.594 538.527 517.843 498.504 480.47 463.697 448.138 433.744 420.462 408.241 397.026 386.761 377.393 368.866 361.126 354.121 347.797 342.106 336.998 332.426 328.345 324.714 321.492 318.64 316.125 313.911 311.97 310.272 308.791 307.503 306.387 305.422 304.59 303.875 303.262 302.739 302.293 301.915 301.594 301.323 301.096 300.905 300.745 300.611 300.5 300.408 300.332 300.27 300.218 300.176 300.142 300.114 300.091 300.073 300.058 300.046 300.036 300.029 300.022 300.018 300.014 300.011 300.008 300.006 300.005 300.004 300.003 300.002 300.002 300.001 300.001 300.001 300.001 300 300 300 300 300 300 300 300 300 300 300 300 300 300 300 300 300 300 885.216 848.976 814.074 780.53 748.362 717.578 688.185 660.181 633.559 608.308 584.412 561.85 540.597 520.622 501.894 484.375 468.026 452.806 438.671 425.575 413.471 402.311 392.047 382.631 374.013 366.146 358.982 352.476 346.58 341.252 336.45 332.131 328.259 324.795 321.704 318.953 316.512 314.351 312.442 310.762 309.286 307.992 306.863 305.878 305.022 304.28 303.639 303.086 302.611 302.203 301.854 301.557 301.304 301.089 300.908 300.754 300.625 300.517 300.426 300.351 300.288 300.235 300.192 300.156 300.127 300.103 300.083 300.067 300.054 300.043 300.034 300.027 300.022 300.017 300.014 300.011 300.008 300.007 300.005 300.004 300.003 300.002 300.002 300.001 300.001 300.001 300.001 300.001 300 300 300 300 300 300 300 300 300 300 300 300 300 907.159 871.376 836.84 803.572 771.587 740.897 711.509 683.422 656.634 631.136 606.918 583.961 562.247 541.751 522.445 504.301 487.283 471.358 456.487 442.631 429.749 417.799 406.739 396.525 387.114 378.461 370.525 363.261 356.629 350.588 345.097 340.118 335.613 331.547 327.887 324.598 321.65 319.015 316.664 314.572 312.715 311.07 309.616 308.335 307.209 306.221 305.356 304.601 303.944 303.373 302.878 302.45 302.081 301.763 301.491 301.257 301.058 300.889 300.744 300.622 300.519 300.431 300.358 300.296 300.245 300.202 300.166 300.136 300.111 300.091 300.074 300.06 300.049 300.039 300.032 300.026 300.021 300.016 300.013 300.01 300.008 300.007 300.005 300.004 300.003 300.003 300.002 300.002 300.001 300.001 300.001 300.001 300 300 300 300 300 300 300 300 300 927.67 892.317 858.133 825.138 793.348 762.774 733.422 705.297 678.397 652.716 628.247 604.975 582.885 561.958 542.17 523.496 505.909 489.377 473.869 459.35 445.785 433.136 421.366 410.436 400.307 390.939 382.294 374.332 367.014 360.303 354.162 348.553 343.441 338.793 334.575 330.755 327.304 324.193 321.394 318.881 316.63 314.618 312.824 311.227 309.809 308.553 307.443 306.463 305.601 304.844 304.18 303.6 303.094 302.654 302.271 301.94 301.653 301.406 301.193 301.01 300.854 300.72 300.606 300.509 300.426 300.356 300.297 300.247 300.206 300.17 300.141 300.116 300.096 300.079 300.065 300.053 300.043 300.035 300.029 300.023 300.019 300.015 300.012 300.01 300.008 300.006 300.005 300.004 300.003 300.003 300.002 300.002 300.001 300.001 300.001 300.001 300 300 300 300 300 946.937 911.99 878.145 845.419 813.829 783.385 754.096 725.966 698.996 673.181 648.517 624.993 602.595 581.309 561.115 541.992 523.916 506.861 490.798 475.698 461.53 448.261 435.856 424.283 413.504 403.486 394.191 385.585 377.632 370.296 363.542 357.337 351.646 346.438 341.681 337.345 333.4 329.817 326.571 323.635 320.985 318.597 316.452 314.526 312.803 311.262 309.889 308.666 307.581 306.619 305.768 305.017 304.355 303.773 303.263 302.817 302.426 302.086 301.79 301.533 301.31 301.118 300.952 300.809 300.686 300.581 300.49 300.413 300.348 300.292 300.245 300.205 300.171 300.142 300.118 300.098 300.081 300.067 300.055 300.046 300.037 300.031 300.025 300.02 300.017 300.014 300.011 300.009 300.007 300.006 300.005 300.004 300.003 300.002 300.002 300.001 300.001 300.001 300.001 300 300 965.11 930.55 897.029 864.568 833.18 802.878 773.67 745.56 718.552 692.643 667.829 644.103 621.454 599.868 579.331 559.824 541.327 523.817 507.27 491.659 476.957 463.134 450.162 438.009 426.643 416.031 406.142 396.943 388.4 380.481 373.154 366.386 360.147 354.405 349.13 344.294 339.867 335.823 332.136 328.779 325.73 322.965 320.462 318.2 316.161 314.326 312.677 311.198 309.875 308.693 307.639 306.701 305.867 305.129 304.475 303.898 303.389 302.941 302.548 302.203 301.902 301.639 301.41 301.21 301.037 300.887 300.757 300.646 300.549 300.466 300.395 300.334 300.282 300.238 300.2 300.168 300.141 300.118 300.098 300.082 300.068 300.057 300.047 300.039 300.032 300.026 300.022 300.018 300.015 300.012 300.01 300.008 300.006 300.005 300.004 300.003 300.002 300.002 300.001 300.001 300 970.286 948.12 914.913 882.71 851.526 821.373 792.259 764.191 737.17 711.198 686.271 662.384 639.528 617.692 596.864 577.028 558.167 540.26 523.287 507.225 492.049 477.733 464.251 451.574 439.675 428.523 418.089 408.343 399.255 390.794 382.93 375.634 368.875 362.625 356.856 351.539 346.647 342.155 338.035 334.265 330.82 327.678 324.817 322.216 319.856 317.719 315.786 314.041 312.469 311.055 309.786 308.648 307.63 306.72 305.91 305.188 304.547 303.979 303.476 303.031 302.639 302.294 301.99 301.724 301.491 301.287 301.109 300.954 300.82 300.703 300.602 300.514 300.438 300.373 300.317 300.269 300.228 300.193 300.163 300.137 300.115 300.097 300.081 300.068 300.057 300.047 300.039 300.033 300.027 300.022 300.018 300.015 300.012 300.01 300.008 300.006 300.005 300.004 300.003 300.002 300.001 836.435 834.608 829.191 820.378 808.474 793.868 777.008 758.369 738.422 717.611 696.335 674.938 653.701 632.849 612.548 592.919 574.044 555.972 538.731 522.329 506.764 492.024 478.092 464.947 452.565 440.921 429.988 419.739 410.145 401.18 392.815 385.022 377.774 371.043 364.803 359.025 353.686 348.759 344.22 340.046 336.212 332.697 329.48 326.54 323.858 321.415 319.193 317.176 315.347 313.693 312.198 310.85 309.636 308.545 307.566 306.689 305.904 305.203 304.578 304.022 303.528 303.09 302.702 302.359 302.056 301.79 301.555 301.349 301.168 301.01 300.872 300.752 300.647 300.556 300.477 300.409 300.349 300.298 300.254 300.216 300.184 300.156 300.132 300.111 300.094 300.079 300.067 300.056 300.047 300.039 300.032 300.027 300.022 300.018 300.015 300.012 300.009 300.007 300.005 300.003 300.002 786.704 785.554 782.126 776.491 768.76 759.083 747.641 734.64 720.304 704.865 688.555 671.603 654.226 636.624 618.979 601.452 584.179 567.277 550.84 534.941 519.636 504.966 490.955 477.618 464.96 452.978 441.663 431 420.973 411.561 402.742 394.493 386.789 379.606 372.919 366.704 360.937 355.592 350.647 346.079 341.866 337.985 334.417 331.14 328.136 325.387 322.873 320.58 318.491 316.59 314.863 313.297 311.879 310.597 309.439 308.396 307.458 306.614 305.858 305.18 304.574 304.033 303.551 303.122 302.741 302.402 302.102 301.837 301.603 301.397 301.215 301.056 300.916 300.793 300.686 300.592 300.511 300.44 300.378 300.324 300.278 300.238 300.203 300.173 300.147 300.125 300.106 300.09 300.076 300.064 300.054 300.045 300.037 300.031 300.025 300.02 300.016 300.012 300.009 300.006 300.003 752.435 751.581 749.032 744.826 739.022 731.704 722.973 712.947 701.759 689.55 676.468 662.664 648.288 633.487 618.403 603.168 587.905 572.727 557.731 543.006 528.625 514.652 501.136 488.118 475.627 463.684 452.301 441.484 431.234 421.546 412.409 403.812 395.739 388.173 381.095 374.486 368.324 362.59 357.262 352.318 347.739 343.503 339.591 335.984 332.662 329.608 326.804 324.233 321.88 319.728 317.765 315.975 314.347 312.867 311.524 310.307 309.206 308.211 307.314 306.506 305.779 305.126 304.541 304.017 303.549 303.13 302.758 302.426 302.131 301.869 301.637 301.432 301.251 301.091 300.95 300.827 300.718 300.622 300.539 300.466 300.402 300.347 300.299 300.257 300.22 300.189 300.161 300.138 300.117 300.099 300.084 300.071 300.059 300.049 300.041 300.033 300.026 300.02 300.015 300.01 300.005 726.023 725.342 723.308 719.944 715.29 709.398 702.334 694.177 685.015 674.943 664.064 652.485 640.313 627.66 614.632 601.335 587.87 574.331 560.806 547.378 534.12 521.096 508.365 495.974 483.964 472.369 461.215 450.521 440.301 430.562 421.308 412.538 404.246 396.424 389.063 382.149 375.667 369.604 363.941 358.661 353.748 349.182 344.946 341.023 337.394 334.043 330.953 328.108 325.491 323.089 320.887 318.87 317.027 315.344 313.809 312.412 311.142 309.989 308.944 307.998 307.142 306.37 305.674 305.047 304.484 303.978 303.524 303.119 302.756 302.432 302.143 301.886 301.658 301.455 301.276 301.117 300.976 300.852 300.743 300.647 300.562 300.488 300.423 300.366 300.316 300.273 300.235 300.202 300.173 300.148 300.126 300.107 300.09 300.075 300.062 300.051 300.041 300.031 300.023 300.015 300.007 718.743 703.95 702.26 699.461 695.581 690.657 684.736 677.873 670.133 661.584 652.302 642.366 631.858 620.862 609.463 597.744 585.787 573.671 561.471 549.26 537.103 525.061 513.191 501.542 490.156 479.074 468.325 457.938 447.933 438.326 429.13 420.351 411.993 404.056 396.537 389.43 382.729 376.422 370.5 364.948 359.754 354.903 350.38 346.171 342.26 338.631 335.269 332.16 329.289 326.641 324.203 321.96 319.901 318.013 316.284 314.703 313.259 311.942 310.743 309.652 308.662 307.763 306.949 306.212 305.547 304.947 304.406 303.919 303.482 303.09 302.738 302.423 302.142 301.891 301.667 301.468 301.291 301.134 300.994 300.871 300.762 300.665 300.58 300.505 300.439 300.381 300.33 300.286 300.246 300.212 300.181 300.155 300.131 300.11 300.092 300.075 300.06 300.047 300.034 300.022 300.011 865.794 830.365 798.772 770.889 746.466 725.151 706.526 690.138 675.531 662.278 649.996 638.363 627.123 616.083 605.109 594.12 583.073 571.959 560.789 549.593 538.407 527.272 516.233 505.332 494.609 484.101 473.842 463.86 454.18 444.823 435.806 427.142 418.839 410.905 403.341 396.149 389.326 382.867 376.767 371.017 365.608 360.529 355.77 351.318 347.161 343.285 339.678 336.327 333.217 330.336 327.672 325.211 322.941 320.85 318.928 317.162 315.543 314.059 312.702 311.463 310.332 309.301 308.364 307.512 306.738 306.038 305.403 304.83 304.312 303.845 303.424 303.046 302.707 302.402 302.129 301.884 301.666 301.471 301.297 301.143 301.005 300.883 300.774 300.678 300.593 300.518 300.451 300.392 300.34 300.294 300.253 300.217 300.185 300.156 300.131 300.108 300.087 300.067 300.049 300.032 300.016 917.527 882.568 850.034 819.911 792.137 766.612 743.198 721.734 702.037 683.911 667.16 651.59 637.017 623.272 610.204 597.684 585.603 573.874 562.431 551.226 540.226 529.414 518.784 508.337 498.082 488.031 478.202 468.611 459.275 450.21 441.432 432.954 424.786 416.938 409.415 402.222 395.36 388.829 382.627 376.75 371.192 365.946 361.005 356.36 352 347.916 344.097 340.531 337.208 334.115 331.241 328.575 326.105 323.82 321.71 319.763 317.97 316.321 314.806 313.416 312.142 310.977 309.912 308.941 308.055 307.249 306.515 305.85 305.246 304.699 304.205 303.758 303.354 302.991 302.663 302.369 302.105 301.868 301.655 301.465 301.295 301.144 301.008 300.887 300.78 300.684 300.599 300.523 300.456 300.396 300.343 300.295 300.253 300.214 300.18 300.149 300.12 300.093 300.069 300.045 300.022 953.494 919.066 886.48 855.743 826.836 799.72 774.335 750.604 728.435 707.727 688.367 670.242 653.235 637.233 622.126 607.81 594.191 581.183 568.711 556.711 545.129 533.92 523.05 512.492 502.228 492.245 482.536 473.098 463.932 455.04 446.426 438.094 430.051 422.3 414.846 407.691 400.838 394.288 388.039 382.09 376.438 371.079 366.007 361.215 356.698 352.446 348.451 344.704 341.195 337.915 334.854 332.001 329.347 326.881 324.594 322.475 320.515 318.704 317.033 315.495 314.079 312.778 311.585 310.491 309.489 308.574 307.739 306.977 306.283 305.652 305.078 304.558 304.086 303.659 303.273 302.925 302.61 302.327 302.071 301.842 301.636 301.451 301.285 301.136 301.003 300.884 300.778 300.683 300.598 300.521 300.453 300.392 300.336 300.287 300.241 300.2 300.162 300.126 300.093 300.061 300.03 981.938 947.998 915.575 884.682 855.315 827.46 801.086 776.154 752.61 730.395 709.442 689.678 671.027 653.411 636.752 620.972 605.998 591.761 578.193 565.234 552.831 540.934 529.502 518.496 507.888 497.65 487.763 478.209 468.977 460.056 451.439 443.121 435.1 427.372 419.936 412.79 405.934 399.366 393.083 387.085 381.366 375.924 370.755 365.852 361.212 356.826 352.688 348.79 345.125 341.685 338.46 335.442 332.622 329.991 327.54 325.261 323.143 321.179 319.359 317.676 316.121 314.687 313.365 312.149 311.032 310.006 309.066 308.205 307.418 306.699 306.044 305.446 304.902 304.408 303.959 303.552 303.183 302.849 302.547 302.275 302.029 301.807 301.607 301.428 301.266 301.12 300.99 300.872 300.766 300.671 300.585 300.508 300.438 300.374 300.316 300.262 300.213 300.166 300.123 300.081 300.04 1005.89 972.392 940.202 909.335 879.794 851.574 824.661 799.032 774.657 751.498 729.511 708.648 688.856 670.081 652.267 635.354 619.288 604.011 589.469 575.61 562.386 549.752 537.665 526.087 514.984 504.327 494.087 484.242 474.772 465.659 456.889 448.45 440.331 432.524 425.021 417.817 410.905 404.28 397.938 391.874 386.084 380.562 375.304 370.304 365.557 361.057 356.798 352.772 348.973 345.393 342.025 338.861 335.894 333.115 330.515 328.088 325.824 323.716 321.756 319.936 318.248 316.684 315.238 313.902 312.669 311.533 310.488 309.527 308.645 307.837 307.096 306.419 305.8 305.235 304.72 304.251 303.824 303.436 303.084 302.765 302.476 302.214 301.977 301.763 301.569 301.394 301.236 301.093 300.964 300.847 300.742 300.646 300.558 300.478 300.405 300.337 300.274 300.215 300.158 300.104 300.052 1026.82 993.728 961.796 931.04 901.465 873.075 845.861 819.812 794.909 771.128 748.44 726.81 706.203 686.578 667.893 650.105 633.168 617.039 601.673 587.027 573.058 559.727 546.995 534.826 523.187 512.046 501.376 491.15 481.345 471.939 462.915 454.255 445.945 437.971 430.322 422.987 415.958 409.225 402.78 396.618 390.73 385.11 379.752 374.649 369.796 365.186 360.812 356.667 352.745 349.039 345.542 342.247 339.146 336.232 333.497 330.934 328.536 326.294 324.202 322.252 320.437 318.75 317.183 315.731 314.386 313.142 311.993 310.932 309.956 309.056 308.23 307.471 306.775 306.137 305.553 305.019 304.532 304.087 303.682 303.313 302.977 302.672 302.395 302.143 301.914 301.707 301.519 301.348 301.193 301.052 300.923 300.806 300.699 300.6 300.509 300.425 300.346 300.272 300.201 300.132 300.066 1045.56 1012.85 981.179 950.576 921.046 892.594 865.219 838.915 813.669 789.467 766.288 744.109 722.903 702.64 683.288 664.814 647.182 630.357 614.303 598.982 584.36 570.402 557.073 544.34 532.173 520.541 509.417 498.775 488.59 478.839 469.503 460.561 451.997 443.794 435.938 428.416 421.215 414.325 407.735 401.436 395.418 389.674 384.195 378.973 374.002 369.274 364.781 360.517 356.474 352.647 349.026 345.606 342.38 339.339 336.478 333.789 331.264 328.897 326.682 324.609 322.674 320.869 319.187 317.623 316.169 314.819 313.568 312.41 311.339 310.35 309.437 308.595 307.821 307.109 306.455 305.854 305.304 304.8 304.339 303.918 303.533 303.182 302.861 302.569 302.303 302.06 301.839 301.637 301.453 301.285 301.131 300.99 300.861 300.741 300.63 300.527 300.43 300.338 300.25 300.165 300.082 1062.64 1030.27 998.867 968.438 938.998 910.552 883.103 856.647 831.178 806.687 783.159 760.578 738.923 718.173 698.302 679.284 661.091 643.695 627.065 611.171 595.983 581.47 567.602 554.35 541.686 529.582 518.011 506.948 496.37 486.253 476.576 467.32 458.465 449.994 441.891 434.141 426.73 419.645 412.873 406.404 400.226 394.33 388.706 383.346 378.24 373.38 368.759 364.368 360.2 356.248 352.504 348.96 345.611 342.448 339.464 336.654 334.009 331.522 329.188 326.999 324.949 323.031 321.239 319.566 318.007 316.555 315.205 313.95 312.786 311.708 310.709 309.786 308.933 308.146 307.42 306.752 306.137 305.572 305.054 304.578 304.141 303.741 303.375 303.04 302.733 302.453 302.196 301.961 301.746 301.548 301.366 301.199 301.045 300.901 300.768 300.643 300.525 300.413 300.306 300.202 300.1 1078.4 1046.36 1015.21 984.963 955.639 927.242 899.774 873.236 847.626 822.936 799.157 776.277 754.282 733.153 712.873 693.419 674.77 656.901 639.789 623.406 607.728 592.728 578.38 564.658 551.536 538.988 526.992 515.521 504.554 494.069 484.044 474.459 465.296 456.536 448.162 440.159 432.51 425.203 418.223 411.557 405.195 399.124 393.334 387.815 382.558 377.552 372.789 368.261 363.959 359.876 356.003 352.334 348.86 345.574 342.469 339.539 336.775 334.172 331.723 329.42 327.259 325.231 323.332 321.554 319.893 318.341 316.894 315.545 314.29 313.124 312.04 311.035 310.104 309.241 308.444 307.707 307.027 306.4 305.822 305.289 304.8 304.349 303.936 303.555 303.206 302.885 302.59 302.319 302.07 301.84 301.629 301.433 301.251 301.081 300.923 300.774 300.633 300.499 300.369 300.244 300.121 1093.08 1061.34 1030.44 1000.39 971.196 942.874 915.427 888.856 863.16 838.336 814.377 791.274 769.017 747.593 726.986 707.179 688.154 669.892 652.372 635.572 619.47 604.043 589.269 575.123 561.584 548.628 536.232 524.374 513.034 502.189 491.819 481.905 472.429 463.371 454.714 446.443 438.541 430.994 423.787 416.907 410.342 404.078 398.105 392.411 386.986 381.82 376.904 372.227 367.782 363.56 359.552 355.75 352.147 348.736 345.508 342.456 339.574 336.855 334.291 331.877 329.605 327.47 325.466 323.585 321.823 320.174 318.631 317.19 315.846 314.592 313.425 312.338 311.329 310.391 309.522 308.716 307.969 307.279 306.64 306.051 305.506 305.004 304.54 304.113 303.719 303.356 303.021 302.712 302.426 302.162 301.918 301.69 301.479 301.281 301.095 300.92 300.753 300.594 300.44 300.291 300.145 1106.85 1075.4 1044.74 1014.88 985.837 957.61 930.21 903.639 877.898 852.987 828.899 805.631 783.173 761.514 740.645 720.55 701.214 682.622 664.756 647.598 631.128 615.326 600.174 585.649 571.731 558.4 545.634 533.414 521.719 510.53 499.826 489.59 479.802 470.446 461.503 452.959 444.795 436.999 429.554 422.448 415.666 409.196 403.027 397.145 391.541 386.203 381.122 376.287 371.689 367.319 363.169 359.229 355.492 351.95 348.595 345.42 342.418 339.58 336.902 334.375 331.994 329.752 327.642 325.66 323.798 322.052 320.415 318.882 317.449 316.109 314.858 313.691 312.604 311.591 310.649 309.774 308.961 308.206 307.507 306.858 306.258 305.702 305.187 304.711 304.271 303.864 303.486 303.137 302.813 302.513 302.233 301.972 301.728 301.5 301.284 301.08 300.885 300.699 300.519 300.343 300.171 1119.85 1088.68 1058.25 1028.59 999.691 971.572 944.237 917.691 891.936 866.972 842.796 819.404 796.791 774.948 753.866 733.534 713.939 695.069 676.908 659.44 642.65 626.519 611.03 596.165 581.905 568.231 555.125 542.567 530.54 519.024 508.001 497.453 487.363 477.713 468.487 459.668 451.242 443.192 435.504 428.164 421.159 414.475 408.1 402.022 396.229 390.71 385.454 380.452 375.694 371.169 366.869 362.785 358.908 355.231 351.745 348.442 345.316 342.358 339.563 336.922 334.43 332.08 329.865 327.78 325.819 323.976 322.245 320.621 319.099 317.673 316.339 315.092 313.926 312.839 311.824 310.879 309.999 309.179 308.418 307.71 307.052 306.441 305.874 305.348 304.86 304.406 303.985 303.594 303.23 302.89 302.574 302.277 301.999 301.737 301.49 301.254 301.03 300.813 300.604 300.4 300.199 1132.18 1101.28 1071.08 1041.6 1012.86 984.855 957.6 931.097 905.35 880.36 856.126 832.644 809.912 787.923 766.668 746.141 726.33 707.223 688.809 671.074 654.003 637.582 621.794 606.624 592.054 578.068 564.648 551.778 539.44 527.616 516.29 505.445 495.063 485.128 475.625 466.537 457.849 449.546 441.614 434.038 426.806 419.903 413.317 407.035 401.047 395.341 389.904 384.728 379.802 375.116 370.66 366.426 362.404 358.587 354.965 351.531 348.277 345.196 342.281 339.524 336.92 334.46 332.139 329.951 327.889 325.949 324.123 322.408 320.796 319.284 317.867 316.538 315.295 314.132 313.044 312.029 311.08 310.196 309.371 308.602 307.887 307.22 306.599 306.022 305.484 304.983 304.516 304.081 303.675 303.295 302.939 302.605 302.29 301.993 301.711 301.443 301.185 300.937 300.696 300.461 300.23 1143.93 1113.28 1083.3 1054.01 1025.42 997.539 970.372 943.927 918.205 893.21 868.94 845.396 822.573 800.468 779.075 758.385 738.392 719.085 700.453 682.485 665.168 648.49 632.436 616.991 602.141 587.87 574.163 561.004 548.377 536.265 524.653 513.524 502.863 492.655 482.883 473.532 464.588 456.035 447.86 440.049 432.589 425.465 418.665 412.178 405.991 400.092 394.47 389.115 384.017 379.164 374.547 370.158 365.987 362.024 358.263 354.694 351.309 348.102 345.064 342.188 339.468 336.897 334.468 332.175 330.012 327.972 326.051 324.243 322.542 320.943 319.441 318.031 316.709 315.469 314.308 313.221 312.205 311.254 310.365 309.535 308.76 308.036 307.361 306.73 306.141 305.591 305.077 304.597 304.146 303.724 303.327 302.954 302.601 302.266 301.948 301.644 301.352 301.07 300.795 300.527 300.263 1144.5 1124.75 1094.98 1065.88 1037.44 1009.69 982.616 956.237 930.554 905.57 881.284 857.698 834.809 812.613 791.106 770.283 750.136 730.657 711.837 693.667 676.134 659.227 642.935 627.244 612.14 597.61 583.639 570.212 557.316 544.935 533.054 521.657 510.731 500.26 490.229 480.624 471.431 462.634 454.221 446.177 438.49 431.146 424.133 417.438 411.05 404.956 399.147 393.61 388.335 383.312 378.531 373.983 369.658 365.547 361.642 357.934 354.416 351.078 347.915 344.918 342.08 339.395 336.855 334.455 332.189 330.049 328.031 326.129 324.337 322.65 321.063 319.57 318.168 316.852 315.616 314.457 313.371 312.353 311.399 310.506 309.671 308.889 308.157 307.472 306.831 306.23 305.668 305.14 304.644 304.178 303.738 303.323 302.93 302.556 302.2 301.858 301.529 301.211 300.901 300.597 300.298 1021.91 1020.18 1015.03 1006.65 995.307 981.34 965.151 947.163 927.796 907.446 886.472 865.182 843.83 822.622 801.711 781.211 761.203 741.738 722.849 704.555 686.861 669.768 653.271 637.361 622.029 607.263 593.05 579.378 566.232 553.599 541.466 529.817 518.639 507.918 497.639 487.789 478.354 469.32 460.674 452.402 444.492 436.93 429.704 422.803 416.214 409.925 403.926 398.205 392.752 387.557 382.609 377.899 373.418 369.156 365.104 361.254 357.599 354.129 350.837 347.716 344.758 341.956 339.305 336.796 334.424 332.182 330.066 328.068 326.183 324.407 322.733 321.157 319.674 318.279 316.967 315.735 314.578 313.492 312.472 311.515 310.618 309.777 308.987 308.247 307.552 306.899 306.286 305.71 305.167 304.655 304.171 303.712 303.277 302.862 302.465 302.084 301.717 301.36 301.012 300.671 300.335 973.931 972.801 969.432 963.885 956.26 946.693 935.346 922.404 908.068 892.547 876.053 858.79 840.958 822.739 804.3 785.791 767.34 749.058 731.035 713.347 696.05 679.19 662.798 646.898 631.504 616.622 602.255 588.4 575.053 562.205 549.847 537.968 526.557 515.601 505.087 495.003 485.336 476.073 467.201 458.706 450.577 442.802 435.367 428.261 421.472 414.989 408.8 402.895 397.264 391.894 386.778 381.904 377.264 372.849 368.648 364.655 360.859 357.254 353.832 350.584 347.504 344.584 341.817 339.198 336.718 334.373 332.156 330.061 328.082 326.214 324.453 322.791 321.226 319.751 318.363 317.056 315.827 314.671 313.584 312.562 311.602 310.699 309.851 309.053 308.303 307.597 306.932 306.305 305.714 305.154 304.624 304.121 303.641 303.183 302.745 302.322 301.914 301.517 301.13 300.749 300.374 939.785 938.922 936.343 932.082 926.194 918.754 909.855 899.603 888.119 875.532 861.977 847.592 832.516 816.885 800.829 784.472 767.931 751.311 734.708 718.207 701.883 685.799 670.008 654.555 639.475 624.797 610.539 596.718 583.343 570.417 557.944 545.919 534.341 523.201 512.492 502.204 492.329 482.854 473.77 465.065 456.726 448.743 441.104 433.797 426.812 420.136 413.76 407.672 401.861 396.318 391.032 385.994 381.195 376.624 372.273 368.133 364.197 360.455 356.899 353.523 350.318 347.278 344.395 341.662 339.074 336.622 334.303 332.109 330.034 328.074 326.222 324.475 322.825 321.269 319.802 318.42 317.117 315.89 314.734 313.646 312.621 311.656 310.747 309.891 309.084 308.323 307.605 306.926 306.284 305.675 305.097 304.547 304.022 303.52 303.037 302.571 302.121 301.682 301.253 300.831 300.414 912.745 912.039 909.928 906.435 901.595 895.456 888.08 879.538 869.911 859.288 847.763 835.435 822.407 808.779 794.653 780.128 765.301 750.261 735.095 719.882 704.694 689.598 674.652 659.908 645.41 631.197 617.3 603.745 590.553 577.74 565.317 553.292 541.668 530.448 519.63 509.211 499.185 489.547 480.289 471.402 462.878 454.707 446.878 439.383 432.21 425.348 418.789 412.521 406.534 400.819 395.365 390.163 385.203 380.477 375.975 371.688 367.609 363.728 360.039 356.532 353.201 350.039 347.037 344.19 341.49 338.931 336.508 334.213 332.041 329.986 328.043 326.207 324.472 322.833 321.286 319.826 318.448 317.149 315.923 314.766 