<VTKFile type="ImageData">
<ImageData WholeExtent="0 10 0 10 0 0" Origin="0.1 0.1 0" Spacing="0.001 0.001 0">
<Piece Extent="0 10 0 10 0 0">
<PointData>
<DataArray Name="T" NumberOfComponents="1" format="ascii" type="Float64">
300 300 300.88 301.727 302.511 303.206 303.788 304.239 304.547 304.703 304.703 300 300.001 300.879 301.727 302.511 303.206 303.788 304.239 304.547 304.702 304.703 300 300.001 300.879 301.727 302.511 303.206 303.788 304.239 304.547 304.702 304.703 300 300.001 300.879 301.727 302.511 303.206 303.788 304.239 304.547 304.702 304.703 300 300.001 300.879 301.727 302.511 303.206 303.788 304.239 304.547 304.702 304.703 300 300.001 300.879 301.727 302.511 303.206 303.788 304.239 304.547 304.702 304.703 300 300.001 300.879 301.727 302.511 303.206 303.788 304.239 304.547 304.702 304.703 300 300.001 300.879 301.727 302.511 303.206 303.788 304.239 304.547 304.702 304.703 300 300.001 300.879 301.727 302.511 303.206 303.788 304.239 304.547 304.702 304.703 300 300.001 300.879 301.727 302.511 303.206 303.788 304.239 304.547 304.702 304.703 300 300 300.88 301.727 302.511 303.206 303.788 304.239 304.547 304.703 304.703 
</DataArray>
</PointData>
</Piece>
</ImageData>
</VTKFile>
