<?xml version="1.0"?>
<VTKFile type="ImageData" version="0.1" byte_order="LittleEndian">
  <ImageData WholeExtent="0 50 0 25 0 0" Origin="0.0 0.0 0.0" Spacing="0.02 0.02 1.0">
    <Piece Extent="0 50 0 25 0 0">
      <PointData Scalars="Density">
        <DataArray type="Float32" Name="Density" format="ascii">
          10.0 7.715296675960911 6.162685818927484 5.1497461564797335 4.472179259889944 4.0003870025942705 3.6582363615092617 3.400799604033718 3.20080714050561 3.0411251673330453 2.910607906514508 2.80176555585908 2.7094150516722246 2.6298747400825957 2.560468604846839 2.4992119549336467 2.4446066249620526 2.3955041287425907 2.3510120890664887 2.310428900978165 2.273197228933506 2.2388703273876716 2.2070872583807617 2.1775543898109824 2.150031398830204 2.1243205547611117 2.1002584221472125 2.0777093724679876 2.0565604634941383 2.036717364128561 2.018101086600911 2.0006453480246327 1.9842944268841451 1.969001411921938 1.9547267645076276 1.9414371332235474 1.929104372725029 1.9177047290821578 1.907218161608387 1.8976277772255083 1.8889193581379977 1.8810809673117566 1.874102619209395 1.8679760056035253 1.8626942682046772 1.858251811403016 1.8546441497111514 1.8518677855696812 1.849920114091167 1.8487993521577741 1.8487993521577741
          10.0 7.715296675960911 6.162685818927484 5.1497461564797335 4.472179259889944 4.0003870025942705 3.6582363615092617 3.400799604033718 3.20080714050561 3.0411251673330453 2.910607906514508 2.80176555585908 2.7094150516722246 2.6298747400825957 2.560468604846839 2.4992119549336467 2.4446066249620526 2.3955041287425907 2.3510120890664887 2.310428900978165 2.273197228933506 2.2388703273876716 2.2070872583807617 2.1775543898109824 2.150031398830204 2.1243205547611117 2.1002584221472125 2.0777093724679876 2.0565604634941383 2.036717364128561 2.018101086600911 2.0006453480246327 1.9842944268841451 1.969001411921938 1.9547267645076276 1.9414371332235474 1.929104372725029 1.9177047290821578 1.907218161608387 1.8976277772255083 1.8889193581379977 1.8810809673117566 1.874102619209395 1.8679760056035253 1.8626942682046772 1.858251811403016 1.8546441497111514 1.8518677855696812 1.849920114091167 1.8487993521577741 1.8487993521577741
          10.0 7.164233319380181 5.743992169885172 4.885420054701195 4.309069666928678 3.8976536720236363 3.591343950555836 3.355687584168596 3.1693686591866177 3.0185684751076685 2.894010865151394 2.78928758382144 2.6998601961214233 2.6224431658200595 2.5546111572026353 2.494542554101185 2.440848006672167 2.392453346259372 2.3485180390090354 2.3083773497030267 2.2715006280030043 2.2374607536188846 2.205911433641263 2.1765701109283775 2.1492049400743225 2.1236247518306106 2.099671240776312 2.0772128263960905 2.0561397875260163 2.03636037568612 2.01779768811911 2.0003871356956364 1.9840743804941814 1.9688136470936985 1.954566333381409 1.9412998630378577 1.9289867342704201 1.9176037288616656 1.9071312529260003 1.8975527864686406 1.888854423311971 1.8810244864891157 1.874053207021585 1.8679324562615722 1.8626555238142366 1.8582169345566282 1.85461229951154 1.8518381963751767 1.849892076386611 1.8487721950115015 1.8487721950115015
          5.701395166485976 5.701395166485976 5.043771364929828 4.501444318253419 4.0796984745182305 3.7524026912127115 3.4951836498553064 3.289666554098263 3.1226211849156367 2.984582720678612 2.86873717187962 2.7701242134730832 2.685086069627688 2.610889288527173 2.5454643159611754 2.4872246847717667 2.4349401104832262 2.3876463355196966 2.3445802662777657 2.3051327120344594 2.2688135186726095 2.2352255363794855 2.2040449594783533 2.1750063169899407 2.1478908964583123 2.122517730218373 2.0987365143174856 2.0764219997201363 2.0554695157708514 2.0357913722680236 2.0173139491236696 1.9999753284278214 1.983723357613723 1.9685140576829587 1.9543103094547325 1.9410807652227073 1.9287989442332012 1.917442478904156 1.906992485314548 1.897433036670425 1.8887507225383298 1.8809342798840956 1.873974284556414 1.8678628939549893 1.8625936333333613 1.8581612195917205 1.854561417581834 1.8517909249268787 1.849847282195421 1.8487288059927147 1.8487288059927147
          4.7489783529597425 4.7489783529597425 4.445200363687739 4.124278262208834 3.835397459105262 3.5891061971188725 3.382723160088906 3.2100914065619306 3.0649394690647345 2.9418685688755297 2.8365072682372574 2.7454022683497477 2.6658493331140423 2.5957328068740213 2.5333924177972 2.4775185695295687 2.427071974506476 2.3812225601270054 2.339303120282784 2.3007740749826695 2.265196550190076 2.2322116882157776 2.2015246378877 2.1728920771709386 2.146112418560611 2.1210180658073816 2.097469250354608 2.0753490931215053 2.0545596236199333 2.035018552307112 2.0166566396579544 1.9994155410863188 1.983246033724439 1.9681065514772467 1.9539619703676234 1.9407825981946845 1.9285433318310312 1.9172229527437281 1.9068035370255716 1.8972699607321886 1.8886094849102797 1.8808114075799363 1.873866772256779 1.8677681244885065 1.8625093094284157 1.8580853047481178 1.8544920842599097 1.8517265085212473 1.849786239465237 1.8486696767700588 1.8486696767700588
          4.149027657477394 4.149027657477394 3.9953638001338443 3.8029528791385574 3.6080602697378312 3.4271771736994197 3.2658239004449348 3.1243591721743034 3.001046900801302 2.8935137827732804 2.7993855885725667 2.7165317389976766 2.643132524276872 2.5776713764891817 2.5188995719362026 2.465794408323635 2.4175195465763597 2.373390550482503 2.3328461754740157 2.2954249588577147 2.2607463397584797 2.2284955051963036 2.1984112406358736 2.170276178331156 2.1439089505069324 2.1191578541053353 2.095895716369802 2.074015716848656 2.0534279737842382 2.034056743864382 2.015838116283379 1.9987181069517541 1.9826510780916424 1.967598423603707 1.9535274724610545 1.9404105717216638 1.9282243181266712 1.916948913106726 1.9065676206895628 1.8970663115480542 1.8884330794487372 1.8806579188106265 1.8737324540828564 1.8676497132908958 1.8624039394583223 1.857990434742312 1.854405433072506 1.8516459978916877 1.8497099422927903 1.8485957694545858 1.8485957694545858
          3.7491879418770004 3.7491879418770004 3.6630703604175037 3.542853412252145 3.4098854358079835 3.2775156152768243 3.1526930072334407 3.0383193207155865 2.9350442996449924 2.842391793748231 2.759399520491016 2.684958205594626 2.6179790283585698 2.557467806189198 2.5025506675718483 2.4524757848988945 2.4066042692931564 2.3643970031258603 2.3254007687976133 2.289235222203266 2.255581323135746 2.2241713679527577 2.194780551216352 2.167219893180254 2.1413303448292473 2.1169778876817062 2.094049464053923 2.072449596007427 2.05209757346507 2.032925112129486 2.014874399247878 1.9978964599199243 1.9819497887856667 1.9669992018956253 1.9530148717035067 1.9399715147517071 1.9278477070180497 1.916625306291445 1.9062889645358527 1.896825716142039 1.8882246303812333 1.8804765183653862 1.8735736864670032 1.8675097295232859 1.8622793582974524 1.8578782566378407 1.8543029645974518 1.8515507844818717 1.849619707405592 1.8485083584757238 1.8485083584757238
          3.466717787959305 3.466717787959305 3.413943320273599 3.33511819619769 3.2422375797965617 3.1445148039163344 3.0479354451743834 2.955895434536113 2.8700237885373263 2.7908591336534854 2.718320945193494 2.652009664487129 2.5913865350071137 2.5358757835046513 2.4849191998846383 2.4380026303735582 2.394666471212929 2.354507419187489 2.3171757292613084 2.2823704098648494 2.249833705965026 2.21934558893032 2.190718609656742 2.1637932674673666 2.13843393598031 2.1145253292913337 2.091969464359055 2.0706830649130574 2.050595350698396 2.031646158935388 2.0137843499810875 1.9969664549402784 1.9811555286598441 1.9663201767979408 1.952433730345044 1.9394735450577634 1.9274204067761929 1.916258026585906 1.9059726123198983 1.8965525050373357 1.887987870923708 1.8802704405834618 1.8733932889871263 1.86735065042949 1.8621377637870054 1.8577507441594774 1.854186477667168 1.8514425367701304 1.8495171139991662 1.848408972452366 1.848408972452366
          3.2576873327499882 3.2576873327499882 3.222944047286727 3.1688034942674514 3.1020745628431268 3.028801543048603 2.953538883205581 2.8793426497109804 2.808058991656651 2.7406661369225866 2.6775676488768534 2.6188112448804435 2.564239570463676 2.5135885847826684 2.4665489746145672 2.422802822668165 2.382044313458408 2.34399044569643 2.3083856666751066 2.2750029334474764 2.243642770962898 2.2141312926353516 2.186317764212138 2.160072050535094 2.135282135372746 2.111851813290409 2.089698597849791 2.0687518584923956 2.0489511805420264 2.030244933383239 2.012589027613111 1.9959458406991233 1.9802832910977144 1.9655740420988315 1.9517948183827918 1.9389258201266828 1.926950221319733 1.9158537406568725 1.9056242749379868 1.896251586294661 1.8877270357988403 1.8800433570892523 1.8731944645959366 1.8671752917663804 1.861981655414141 1.8576101429373055 1.8540580197033179 1.851323154381094 1.8494039604322619 1.848299352361046 1.848299352361046
          3.0974931841150175 3.0974931841150175 3.0732908826370116 3.034527414643007 2.9851908534689384 2.9292113037866696 2.869888075274822 2.8097055784253437 2.750379502487992 2.692999863233764 2.638191376849461 2.5862545065562403 2.53727584542311 2.4912086333422194 2.4479286889040166 2.407271785836981 2.3690577499009233 2.333105392665479 2.299241296912335 2.2673045757008126 2.2371490587313607 2.2086438817214344 2.181673122712538 2.156134903480599 2.1319402228882973 2.1090116887688546 2.0872822492312584 2.0666939816941614 2.047196970712353 2.028748288522581 2.01131108171061 1.994853761168986 1.9793492890424156 1.9647745546361186 1.9511098306316919 1.9383383009845117 1.9264456522886082 1.9154197210113395 1.9052501897091123 1.8959283260679138 1.8874467593276716 1.8797992893247084 1.8729807240105414 1.8669867418742376 1.8618137762099185 1.8574589186341652 1.8539198396746275 1.8511947246267335 1.8492822232156758 1.848181411911845 1.848181411911845
          2.9714619459146636 2.9714619459146636 2.953822667383283 2.9250430345482714 2.8875493485760733 2.8439223906451323 2.7965125626423064 2.7472488173934 2.697594440163085 2.64858743403674 2.6009167082010043 2.5550042660848034 2.5110786824095777 2.4692346223647257 2.429478150968743 2.3917597414492087 2.3559975042114294 2.3220930402067856 2.289941929240982 2.259440420110142 2.2304894913423303 2.202997128897585 2.176879420632205 2.1520608854728183 2.128474324309205 2.106060386953287 2.084766984785487 2.0645486339740833 2.0453657835272336 2.0271841616699833 2.0099741601062666 1.99371026650137 1.9783705495190944 1.9639361969392397 1.9503911050534353 1.937721516200679 1.9259157006223646 1.9149636785607596 1.9048569785390412 1.895588427940105 1.8871519722751688 1.8795425198555136 1.8727558089216199 1.8667882946248233 1.8616370535862683 1.8572997040704253 1.853774340103128 1.8510594781367176 1.8491540151185268 1.8480571970557786 1.8480571970557786
          2.870336496562672 2.870336496562672 2.8569938536557826 2.834939112500612 2.805705988644644 2.771020740779101 2.7325569890212087 2.691783063735871 2.6498952870917525 2.607811946823289 2.566201693374996 2.5255264779634405 2.4860866288409116 2.448061606899625 2.411543882060373 2.376565585050792 2.3431186596167786 2.3111696316343724 2.280670144898295 2.2515642846768085 2.2237935278929424 2.197299976901654 2.1720283750945835 2.1479272735355956 2.124949617406396 2.1030529451010156 2.082199336534438 2.062355206152663 2.0434910064962777 2.0255808869994234 2.008602337717898 1.9925358371633564 1.977364516113307 1.9630738442480726 1.9496513430698892 1.9370863263066171 1.9253696675501208 1.9144935939827827 1.9044515045311656 1.8952378105311414 1.8868477969071509 1.8792775018997527 1.8725236134781564 1.8665833807194891 1.8614545386047558 1.8571352448600318 1.85362402765236 1.8509197431281534 1.8490215419551905 1.847928844196396 1.847928844196396
          2.7879964666368346 2.7879964666368346 2.777581689813447 2.7602020828255363 2.7368627218269435 2.7087440106352147 2.6770474969142306 2.6428846239621837 2.607213618151667 2.5708162141255584 2.534301431928133 2.4981245375177363 2.4626123617318854 2.427989367464244 2.3944014144835153 2.361935911362566 2.330638088679726 2.3005236769996147 2.271588508340187 2.243815614998323 2.217180362962688 2.191654081761029 2.1672065677681114 2.1438077582783186 2.1214288050339563 2.1000427198406815 2.0796247206281784 2.0601523721688957 2.041605589788273 2.0239665550474686 2.0072195780651265 1.9913509306561117 1.9763486668467556 1.962202441840656 1.9489033365962962 1.9364436924170068 1.924816958031522 1.9140175503278116 1.9040407290232884 1.8948824849861021 1.886539441573908 1.8790087681623049 1.8722881049475162 1.8663754980925817 1.8612693443193538 1.8569683441126301 1.853471462786234 1.8507778987555596 1.848887058461906 1.8477985374973294 1.8477985374973294
          2.720236494306308 2.720236494306308 2.711881992923209 2.6978402558410113 2.6787921439271924 2.6555637809478982 2.6290290941909404 2.600031675308204 2.5693329570327537 2.5375853462512206 2.505324744182254 2.4729759177083 2.4408650250967883 2.4092350959412565 2.3782617492311293 2.3480676187456515 2.318734783881771 2.290315024654163 2.262838011773972 2.2363176823220767 2.2107570978832576 2.1861520764943774 2.1624938589940252 2.1397710302376494 2.1179708749156902 2.097080310684188 2.077086509680764 2.057977293522044 2.0397413661266364 2.0223684324588493 2.005849238758582 1.9901755602785682 1.97534015535406 1.961336699253131 1.9481597072719563 1.9358044536123546 1.9242668904471836 1.9135435700420536 1.9036315717062706 1.8945284345764433 1.8862320967058226 1.878740840576433 1.8720532449211056 1.8661681426031036 1.8610845842258925 1.856801807115719 1.8533192093211022 1.8506363282962415 1.8487528239726219 1.847668465969781 1.847668465969781
          2.6640739179654864 2.6640739179654864 2.657207015780727 2.6456015676507842 2.629733088305608 2.610193436952456 2.5876283520799936 2.562683239582022 2.5359631165215366 2.508007783655759 2.4792802170900936 2.450164842305417 2.420972257719434 2.3919475256794787 2.363279912476949 2.335112685939222 2.3075521618903903 2.2806756078926655 2.2545378844808006 2.2291768647823282 2.2046177567474623 2.1808764857668628 2.15796229943768 2.1358797443541766 2.1146301457545102 2.094212699822713 2.0746252682533473 2.0558649466941445 2.0379284633747488 2.0208124516104644 2.0045136297006603 1.9890289136860109 1.974355482133823 1.9604908072551868 1.9474326629322811 1.9351791174050827 1.9237285162346902 1.9130794595656293 1.9032307765254233 1.8941814987276788 1.8859308342086045 1.8784781426674197 1.8718229125537524 1.8659647403159516 1.8609033119673999 1.8566383870243315 1.8531697848037818 1.8504973730334284 1.8486210587083347 1.8475407811270406 1.8475407811270406
          2.617336936217272 2.617336936217272 2.6115662863929043 2.601771077153968 2.5882929820984995 2.5715660077886047 2.5520757230365945 2.5303216304429217 2.506787033325608 2.4819180497081015 2.4561113829579173 2.4297093026060486 2.402999886105353 2.376220661248462 2.349564122956649 2.3231840021320793 2.2972015383929394 2.271711309627997 2.2467863910981634 2.2224827644899614 2.198842988457241 2.1758991926040494 2.1536754799618536 2.1321898290172547 2.1114555824959336 2.0914826012385803 2.0722781506595167 2.0538475762529713 2.036194814372844 2.0193227755030376 2.003233629588929 1.9879290166737302 1.9734102009472299 1.9596781822052136 1.946733775468568 1.9345776669659736 1.9232104527062979 1.9126326643403744 1.9028447858407476 1.893847263634407 1.885640512145194 1.8782249161901419 1.8716008312888466 1.8657685826569734 1.8607284634407801 1.8564807325912516 1.8530256126601543 1.8503632877155287 1.8484939015127515 1.8474175560130268 1.8474175560130268
          2.578409212018953 2.578409212018953 2.5734591420784523 2.56502765018965 2.5533669805283 2.538802885801699 2.52170746768868 2.5024728527141997 2.481488746584139 2.4591254215855516 2.435722404008616 2.411582261057785 2.3869684502035344 2.36210608964458 2.337184609922995 2.312361445153973 2.287766143037927 2.2635044734399368 2.2396622775226156 2.216308919852067 2.1935002889964137 2.171281345356089 2.1496882460584166 2.12875009247445 2.108490351601742 2.088928002119759 2.0700784520868405 2.051954269804628 2.0345657634487018 2.0179214393065004 2.002028363218889 1.986892445237661 1.9725186636174628 1.9589112410213165 1.9460737831659145 1.9340093879860822 1.922720731676813 1.9122101366018238 1.9024796249740863 1.8935309613604459 1.885365686392589 1.8779851435421175 1.8713905004074207 1.8655827656396036 1.8605628023842802 1.8563313389198677 1.8528889770189598 1.8502361984375546 1.8483733698397988 1.8473007463873006 1.8473007463873006
          2.5460657755632656 2.5460657755632656 2.5417367237468973 2.534342492643655 2.5240743171938242 2.511182562962572 2.495958232682407 2.4787143130190916 2.4597690450258964 2.4394323868786247 2.41799614591796 2.3957276502183507 2.372866457474268 2.349623435935825 2.3261815402844226 2.3026976831311496 2.2793052204741997 2.256116693413086 2.2332265797536515 2.210713899667804 2.188644587891507 2.1670735932735643 2.146046698533205 2.125602072774893 2.1057715801538364 2.0865818729312697 2.0680552981625255 2.050210645975656 2.0330637648887713 2.0166280665777956 2.000914939375469 1.9859340868069455 1.97169380477588 1.958201208659085 1.9454624195530195 1.9334827172208142 1.9222666658810832 1.9118182178213987 1.902140798872429 1.8932373790083834 1.8851105307146683 1.8777624772578263 1.8711951325833815 1.8654101342355462 1.8604088704232835 1.8561925021375543 1.8527619810443534 1.850118063729083 1.8482613227430764 1.847192154796981 1.847192154796981
          2.519364341922165 2.519364341922165 2.5155081366001784 2.5089068201109814 2.4997093233431826 2.4881128740158545 2.474350102979145 2.458675601357011 2.441353349716731 2.4226459954277635 2.4028064737784014 2.3820720592505986 2.3606606456809955 2.338768892064315 2.316571811995379 2.2942233971461334 2.271857918247747 2.2495916171144943 2.2275245745608023 2.2057426027532885 2.184319062760813 2.1633165481776806 2.1427884048190387 2.122780076505011 2.103330279894235 2.084472019056868 2.066233454538339 2.0486386432653347 2.0317081656811222 2.0154596556066866 1.9999082469439027 1.9850669497535625 1.9709469666333153 1.9575579587929002 1.9449082698310733 1.9330051139830835 1.9218547345325805 1.9114625371592309 1.901833202209217 1.8929707792138895 1.8848787664255469 1.877560177673017 1.871017598449097 1.8652532328145797 1.8602689424285086 1.8560662787824147 1.8526465095195328 1.8500106395518803 1.8481594275428068 1.847093398195349 1.847093398195349
          2.4975714363350185 2.4975714363350185 2.494075345252466 2.4880798005513363 2.4797040789161877 2.4691076691261813 2.4564810429479236 2.442035759508841 2.4259948797944038 2.408584425327291 2.3900263245942632 2.370533019896439 2.3503036957373133 2.3295219508149785 2.308354663734088 2.2869517827571735 2.2654467849351736 2.2439575843549555 2.222587711323434 2.20142762634522 2.180556070360762 2.1600413839574815 2.1399427527925474 2.1203113548131025 2.101191397979811 2.082621046151359 2.064633236565907 2.047256395812843 2.0305150630103244 2.014430429618565 1.9990208053160006 1.9843020189250553 1.9702877626901052 1.9569898874129688 1.9444186551244802 1.932582955166464 1.9214904888059783 1.9111479268177534 1.9015610438565616 1.8927348328980678 1.884673602550537 1.8773810596246556 1.8708603789882658 1.8651142624200483 1.8601449879049357 1.8559544505782075 1.852544196319296 1.8499154488157707 1.848069130758113 1.8470058796830497 1.8470058796830497
          2.4801110550088135 2.4801110550088135 2.4768871869587388 2.471350697244302 2.4636000008041776 2.4537677601844115 2.4420140739475933 2.4285189957026487 2.413475066506843 2.3970804116185094 2.379532776688721 2.361024700094819 2.341739865938406 2.321850570221778 2.3015161628170344 2.2808822943970632 2.2600807914573977 2.239229994506708 2.2184354163782727 2.1977906033756005 2.177378107597799 2.1572705019664578 2.137531389111371 2.1182163711055497 2.0993739592941547 2.0810464126030226 2.0632704992891098 2.0460781816455738 2.0294972261773108 2.0135517436194776 1.9982626642030388 1.9836481540262316 1.9697239784563587 1.9565038182999226 1.9439995441394275 1.9322214538114104 1.9211784775395904 1.9108783547706354 1.9013277863077027 1.8925325649104812 1.8844976871358845 1.8772274488336385 1.8707255263855147 1.8649950454844875 1.860038638988222 1.8558584951470307 1.852456397296656 1.8498337559178966 1.847991633795446 1.8469307648549176 1.8469307648549176
          2.4665283179342996 2.4665283179342996 2.463506382099328 2.4583110638367054 2.451026210188357 2.4417655989535927 2.430667720455095 2.4178899280466 2.4036024482746488 2.387982670513097 2.3712100284200037 2.3534616671904764 2.3349089812716377 2.3157150190379325 2.296032688499535 2.2760036605204546 2.255757849136338 2.2354133470222335 2.215076702703551 2.1948434402964 2.174798739070776 2.155018206686624 2.1355686951897477 2.1165091220766103 2.0978912697122323 2.079760545170071 2.0621566893732077 2.045114429538578 2.0286640726610092 2.012832040403523 1.9976413475331467 1.9831120271652194 1.9692615067236066 1.9561049388227272 1.9436554913334512 1.9319246007871462 1.9209221930585518 1.9106568749913762 1.9011361003207745 1.8923663129253465 1.8843530701221365 1.877101148410562 1.870614633780587 1.8648969984296597 1.8599511654828744 1.855779563081121 1.8523841689915101 1.8497665467014144 1.8479278737807374 1.8468689631366186 1.8468689631366186
          2.45646334777394 2.45646334777394 2.453585567158317 2.448634147013659 2.4416830274214245 2.432833065885909 2.4222078498506012 2.409948923860011 2.396210799260778 2.381156076691031 2.3649509445106665 2.3477612356677766 2.329749145287779 2.3110706413482887 2.2918735464017463 2.272296230781003 2.252466835734391 2.2325029356774952 2.212511548909403 2.1925894125608667 2.172823447559222 2.1532913509753717 2.134062264838436 2.1151974814618484 2.0967511550238065 2.0787709973781685 2.0612989428247617 2.044371771941967 2.0280216887412346 2.0122768485275158 1.9971618361252472 1.9826980957259366 1.9689043146788587 1.9557967642062988 1.9433896003817608 1.9316951288461381 1.9207240367174014 1.910485595023758 1.9009878347958087 1.8922376997180312 1.8842411779836248 1.8770034157339062 1.8705288142033987 1.8648211124406555 1.85988345723651 1.8557184616672686 1.8523282534508028 1.8497145141175415 1.8478785098147856 1.8468211143927993 1.8468211143927993
          2.44963229271084 2.44963229271084 2.446849722560009 2.442059533228775 2.4353293580602546 2.4267517933544935 2.4164408410708074 2.4045278055272257 2.39115693578066 2.376481087113574 2.3606576310042517 2.343844784651446 2.3261984691110684 2.3078697474980063 2.289002846656718 2.269733729553379 2.2501891615270164 2.2304862001379773 2.21073203359334 2.1910240943223425 2.1714503800793414 2.152089923167913 2.133013357620373 2.1142835434468106 2.0959562157488456 2.0780806342128266 2.060700215095334 2.043853133269227 2.0275728862774365 2.0118888157585584 1.9968265841987676 1.9824086068672684 1.968654440137811 1.9555811283034399 1.9432035115556388 1.9315344981059015 1.9205853035452594 1.9103656605194872 1.9008840016863997 1.8921476187491708 1.8841628001497688 1.8769349497770171 1.8704686888069308 1.8647679425573152 1.8598360140096988 1.8556756454326564 1.852289069332735 1.8496780497616847 1.847843914817279 1.8467875809796683 1.8467875809796683
          2.4458134652004144 2.4458134652004144 2.443083233196939 2.4383816741691926 2.4317730542263334 2.423345532818087 2.413207939478193 2.4014860264828806 2.3883184497934837 2.373852722519951 2.3582413518764493 2.3416383233732962 2.3241960434606836 2.306062800998272 2.2873807636676355 2.268284490480319 2.2488999166763888 2.229343751978535 2.2097232259381636 2.190136113177872 2.170670974866084 2.15140755911128 2.132417310793297 2.1137639496456235 2.095504083463148 2.0776878306934545 2.0603594331396953 2.04355784497141 2.0273172887187196 2.011667772489215 1.996635565402939 1.9822436303087847 1.9685120143447397 1.9554581989452384 1.9430974115793453 1.9314429019069892 1.9205061852363234 1.910297256209494 1.900824775581025 1.8920962328171484 1.8841180870618217 1.876895888805342 1.8704343843684774 1.8647376050887368 1.8598089428725046 1.8556512135614198 1.8522667093560345 1.8496572413449557 1.8478241729985976 1.8467684452673074 1.8467684452673074
          2.4458134652004144 2.4458134652004144 2.443083233196939 2.4383816741691926 2.4317730542263334 2.423345532818087 2.413207939478193 2.4014860264828806 2.3883184497934837 2.373852722519951 2.3582413518764493 2.3416383233732962 2.3241960434606836 2.306062800998272 2.2873807636676355 2.268284490480319 2.2488999166763888 2.229343751978535 2.2097232259381636 2.190136113177872 2.170670974866084 2.15140755911128 2.132417310793297 2.1137639496456235 2.095504083463148 2.0776878306934545 2.0603594331396953 2.04355784497141 2.0273172887187196 2.011667772489215 1.996635565402939 1.9822436303087847 1.9685120143447397 1.9554581989452384 1.9430974115793453 1.9314429019069892 1.9205061852363234 1.910297256209494 1.900824775581025 1.8920962328171484 1.8841180870618217 1.876895888805342 1.8704343843684774 1.8647376050887368 1.8598089428725046 1.8556512135614198 1.8522667093560345 1.8496572413449557 1.8478241729985976 1.8467684452673074 1.8467684452673074
        </DataArray>
      </PointData>
      <CellData/>
    </Piece>
  </ImageData>
</VTKFile>
