<?xml version="1.0"?>
<VTKFile type="ImageData" version="0.1" byte_order="LittleEndian">
  <ImageData WholeExtent="0 50 0 25 0 0" Origin="0.0 0.0 0.0" Spacing="0.02 0.02 1.0">
    <Piece Extent="0 50 0 25 0 0">
      <PointData Scalars="Density">
        <DataArray type="Float32" Name="Density" format="ascii">
          10.0 7.344527167443163 5.539870616602035 4.362360348801877 3.5745363355837627 3.0257650147658066 2.6275550485968413 2.327684248692006 2.094453660240899 1.9079443325376766 1.7551963798926264 1.6274984269707176 1.5188193605286864 1.4248722508181058 1.3425380556475144 1.269500219889815 1.2040065452832311 1.1447100236889967 1.0905599493328777 1.0407258226567742 0.9945431168473391 0.9514739166698929 0.9110778608335568 0.8729903411925651 0.8369058886406853 0.8025653142369636 0.7697455994421272 0.7382518176505011 0.7079105682661628 0.6785645450805314 0.6500679630168212 0.6222826456144759 0.5950746407053094 0.5683112928937011 0.5418587682048004 0.5155801100013624 0.48933402128721437 0.46297473866408567 0.43635361950041585 0.4093234532821201 0.3817470984332583 0.35351293096966085 0.32456088919368875 0.29492472014736826 0.26479835139237157 0.234636517618108 0.20529932969523604 0.17823921979903923 0.15568423459434003 0.14064459388616418 0.14064459388616418
          10.0 7.344527167443163 5.539870616602035 4.362360348801877 3.5745363355837627 3.0257650147658066 2.6275550485968413 2.327684248692006 2.094453660240899 1.9079443325376766 1.7551963798926264 1.6274984269707176 1.5188193605286864 1.4248722508181058 1.3425380556475144 1.269500219889815 1.2040065452832311 1.1447100236889967 1.0905599493328777 1.0407258226567742 0.9945431168473391 0.9514739166698929 0.9110778608335568 0.8729903411925651 0.8369058886406853 0.8025653142369636 0.7697455994421272 0.7382518176505011 0.7079105682661628 0.6785645450805314 0.6500679630168212 0.6222826456144759 0.5950746407053094 0.5683112928937011 0.5418587682048004 0.5155801100013624 0.48933402128721437 0.46297473866408567 0.43635361950041585 0.4093234532821201 0.3817470984332583 0.35351293096966085 0.32456088919368875 0.29492472014736826 0.26479835139237157 0.234636517618108 0.20529932969523604 0.17823921979903923 0.15568423459434003 0.14064459388616418 0.14064459388616418
          10.0 6.7040735001104 5.0532686248057415 4.055171503684202 3.3849843742752745 2.906383345238723 2.5498279007185207 2.2752703046566523 2.0579312559353644 1.8817447550680662 1.735923851224747 1.6130142020902822 1.5077339239946592 1.416256500797094 1.3357542854486681 1.2641003143208538 1.1996689345613363 1.1411996062860603 1.0877019914084838 1.038388577465393 0.9926260132596176 0.9498993827889906 0.9097855688902136 0.8719330959400734 0.836046651121722 0.801875022831422 0.7692015591966803 0.7378364998599383 0.7076107087990162 0.6783704602662854 0.6499730209502752 0.6222828412202791 0.5951682260120659 0.5684984095463754 0.54214101581664 0.5159599584429937 0.48981393227866016 0.46355579410741704 0.4370333491891839 0.4100923968768906 0.38258340628639254 0.35437398906053347 0.3253705577449656 0.29555443045101915 0.2650405103119978 0.2341710169065212 0.2036629211136739 0.17483386506732204 0.14992296306858824 0.13243080674084431 0.13243080674084431
          5.0039279941018915 5.0039279941018915 4.2394770746349995 3.608933206053162 3.118431837603775 2.737596533712003 2.4380944693632545 2.198564774642705 2.003625729743115 1.8422715992893626 1.7065770780983505 1.59077066986245 1.4905940602170533 1.4028624395785143 1.3251617380424854 1.2556383885417237 1.1928517327101915 1.1356691241107801 1.0831904106218264 1.0346928531898842 0.9895904248658717 0.9474033468381132 0.9077349949053963 0.8702541697256712 0.8346813091328655 0.8007776229364256 0.7683364100534233 0.7371760141991982 0.7071340140924425 0.6780623451025496 0.6498231238953923 0.6222850048980567 0.5953199442841733 0.5688002897757047 0.5425961590836585 0.5165731237043752 0.4905902880912085 0.46449896154030756 0.4381422835552137 0.41135641706529325 0.3839743209642754 0.35583373912106886 0.326792039573446 0.2967521658657507 0.26570677476177235 0.23381299692315527 0.20152190236002798 0.1698148959504885 0.14066785627335845 0.11799590646746155 0.11799590646746155
          3.8970345991384825 3.8970345991384825 3.5438392071528284 3.170619574041572 2.8345367108612707 2.5478455697211393 2.307425151691805 2.1061148755183683 1.9366208391018445 1.7926630564405182 1.6691550780103366 1.5620769688480738 1.4682787112659963 1.3852936018370112 1.3111833609819423 1.2444163480804507 1.183774058598204 1.1282800082872537 1.077145738693953 1.0297297127503189 0.9855058560825376 0.9440393107068067 0.904967593486677 0.8679858199102699 0.8328349988526482 0.7992926567072665 0.7671652340321741 0.7362818331448675 0.7064889945675339 0.6776462538784199 0.6496222857440801 0.6222914842656254 0.5955308627071316 0.5692171850645611 0.543224270667607 0.5174204456411783 0.491666157693368 0.4658118322976443 0.4396961427166098 0.4131450153083043 0.38597192989408485 0.3579804576240438 0.32897059210164253 0.2987514117350051 0.2671642156930759 0.23412316796208338 0.1996872922328585 0.16420102961052988 0.1286444557513884 0.0958453949912372 0.0958453949912372
          3.1998019895389915 3.1998019895389915 3.0210744278301904 2.797213442811641 2.5703647526049567 2.3596911340162197 2.171604242338298 2.0065164687813692 1.8624052176637456 1.7365068955246672 1.626056342895571 1.5285710061711484 1.4419289827756088 1.36435996232604 1.2944041232549557 1.2308634404957512 1.1727555004530577 1.1192733451853614 1.0697519831103504 1.0236410422616606 0.9804826651467378 0.9398937067605407 0.9015513918904687 0.8651817207186172 0.8305500429784529 0.7974533357022774 0.7657138142781367 0.7351735821630505 0.7056900838494155 0.6771321715232352 0.6493766310169281 0.6223050394784421 0.5958008475977379 0.5697465949005823 0.5440211790310245 0.5184971106354258 0.4930376963259345 0.46749410601791924 0.44170230229690693 0.4154798463764585 0.3886226614527106 0.3609019515387344 0.3320616669023748 0.30181716280067195 0.2698557732696432 0.2358386591416697 0.19939510258995394 0.16006325182436534 0.1169723260042345 0.06737241902602402 0.0
          2.7351512690524853 2.7351512690524853 2.63492744282989 2.4949711243174035 2.340091413382738 2.1857997997069663 2.0401688286107147 1.9065666709220763 1.7857437807481826 1.677141613528238 1.579636121091508 1.4919318478702626 1.412756474827147 1.3409469704996395 1.2754793567529508 1.2154706447059445 1.1601681659630476 1.1089341712599274 1.0612295968994399 1.0165987952456845 0.974655937108571 0.9350732506591661 0.8975710067930568 0.8619090556531042 0.8278796887917068 0.7953016066583068 0.7640147911221742 0.73387610711607 0.7047554811247699 0.6765325248410792 0.6490934889425126 0.6223284442740399 0.5961285955807136 0.5703836360163673 0.5449790483118806 0.519793249503611 0.49469445846783566 0.4695371360612304 0.44415780203265043 0.418369965568522 0.3919578121257515 0.3646681670062197 0.33620011755137236 0.30619155812789256 0.2742018888650356 0.2396901510210372 0.20198756107108579 0.16026107013293614 0.11346129137652369 0.06030334988825927 0.0
          2.40691411271045 2.40691411271045 2.345441926736502 2.2535912364669404 2.1453009139110417 2.0312759828928755 1.9184694998841036 1.8108242656972666 1.710229051588954 1.617304861947316 1.5319525866728603 1.4537017592705623 1.3819195140637068 1.3159292855128404 1.2550741787762139 1.1987476906466292 1.146405827130951 1.097569048884139 1.0518189816594081 1.0087927136310624 0.9681762453378058 0.9296979239693208 0.8931222717140741 0.8582443800470543 0.82488491146398 0.7928856816883745 0.7621057618893786 0.7324180261492604 0.7037060650463227 0.6758613863103248 0.6487808247554944 0.6223640839264254 0.5965113293936942 0.5711207466579541 0.5460859629032736 0.5212932080678405 0.4966180517676525 0.47192149058026545 0.44704506287886064 0.4218045176899907 0.39598133497787336 0.3693110590812983 0.3414669533508028 0.31203699166192883 0.28049207712594315 0.2461450499691358 0.20810789736134958 0.16528073062169385 0.11647969098523647 0.060981593422838085 0.0
          2.164031844154837 2.164031844154837 2.1235154676763695 2.0603530711253337 1.9824561315797187 1.896846792778272 1.8088150671734502 1.7219089740158053 1.6382698281773398 1.559029716172311 1.4846523063597576 1.4151871323341385 1.3504447848122692 1.2901112093701783 1.2338190288114639 1.1811900986902442 1.131859502825588 1.0854879242991233 1.041766940419577 1.0004201502094041 0.9612019562809009 0.9238951196728957 0.8883077586006154 0.8542701808865172 0.8216317652250061 0.7902579992040139 0.7600277168896159 0.7308305396084075 0.7025645000067311 0.6751338148680505 0.6484467621102343 0.622413608715828 0.5969445264982419 0.5719474190047751 0.547325562354041 0.5229749309488808 0.4987810289936566 0.4746149697870096 0.45032841945032165 0.4257468218693966 0.4006600017991049 0.3748087326691679 0.3478650543650743 0.31940293001521347 0.2888542908880812 0.2554445058824153 0.218104939292698 0.1753839333406294 0.12547155534432736 0.06675309197743229 0.0
          1.9779084008644316 1.9779084008644316 1.9496427163800951 1.9043515363136905 1.846668098399126 1.7811576024778923 1.7116515243527295 1.6410336938114793 1.5712939895393252 1.50369459794937 1.4389563927193636 1.3774228397771462 1.3191882552057104 1.2641913452355218 1.2122801663612306 1.16325551318479 1.116898864891852 1.0729896732250168 1.0313154939859546 0.9916774261866553 0.9538925457162504 0.9177944644639864 0.8832327596498768 0.8500717550477258 0.8181889590257005 0.7874733467011121 0.7578235957023071 0.7291463336353596 0.7013544211373945 0.6743652709958535 0.6480991867337604 0.6224776899535882 0.5974217918037215 0.5728501474323533 0.5486770099688325 0.5248098679483897 0.501146600406143 0.47757190626595314 0.4539526410583252 0.43013149322139654 0.4059180984641446 0.3810761198942218 0.35530381078196005 0.3282037099481292 0.2992335102637388 0.2676228880076167 0.2322264859089076 0.19125742691083197 0.14183050131952957 0.07948060448150002 0.0
          1.8314890639430323 1.8314890639430323 1.8108509672114508 1.7771631328646094 1.7332438163560189 1.6820901790890623 1.6264310421913417 1.5685048572813562 1.5100083370324906 1.452143399901312 1.3957057132346309 1.341180199350573 1.2888264092114454 1.238747667092078 1.1909436940452776 1.1453489286259675 1.1018594749425137 1.0603514708020816 1.020693211264414 0.9827528469314599 0.9464030132308027 0.911523371802623 0.8780017580658654 0.8457344170809811 0.8146256569074595 0.784587140020287 0.7555369569089325 0.727398572395696 0.7000996974870635 0.6735711125429582 0.6477454473595365 0.622555907426606 0.5979349206371698 0.5738126627034471 0.5501153997936266 0.5267635599673443 0.5036694058043785 0.4807341212778408 0.45784403328840834 0.4348655393384385 0.41163806473286557 0.3879639396368182 0.3635932809613718 0.33820033493881746 0.3113440715958596 0.2823964824808451 0.25039479235327544 0.21368301697199696 0.16886691082431216 0.10718554378991106 0.0
          1.7140142866876658 1.7140142866876658 1.6983698823329956 1.6724980228822477 1.6381796990273232 1.5974190750399673 1.5521585657575496 1.5041014496188163 1.4546343458957756 1.4048202198618163 1.3554313861661127 1.3069994037503987 1.2598674488226733 1.2142376601857674 1.1702104838122354 1.127815615301927 1.0870353825419463 1.0478218654511031 1.0101090880781283 0.9738214684503186 0.9388794994615501 0.9052034223474836 0.8727154694134263 0.841341102252656 0.8110095544066577 0.7816538984460673 0.753210791143742 0.7256200015016869 0.698823790420634 0.6727661841616916 0.6473921635860441 0.6226467751883862 0.5984741562701565 0.5748164535436194 0.5516126003512477 0.5287969006771939 0.5062973459431015 0.4840335601963205 0.4619142264843499 0.43983378582048444 0.4176681110221268 0.3952687271783568 0.3724549600928688 0.3490031323157208 0.32463167402449583 0.2989814207045507 0.2715951207479596 0.2419286829228669 0.20957916884317696 0.1757094130497992 0.1757094130497992
          1.6183702735535919 1.6183702735535919 1.6061288687890831 1.5856909085608797 1.5582230849084961 1.5250952834166027 1.4877014111010747 1.4473301226479707 1.4050914856983163 1.3618899398351476 1.3184286891343204 1.2752317348537716 1.2326732924132366 1.1910080729247916 1.1503988842185144 1.1109400283402453 1.072676186379804 1.0356171196792014 0.9997487895708501 0.9650415616675105 0.9314561178940318 0.8989476115838088 0.8674685020985277 0.8369704124500861 0.8074052732782298 0.7787259509257294 0.7508865053404984 0.7238421831643844 0.6975492204411999 0.6719645058258398 0.647045137218466 0.6227478909171323 0.5990286115200154 0.5758415220496982 0.5531384465670864 0.5308679317611208 0.5089742502052235 0.48739626804167513 0.466066168358961 0.44490804876671475 0.42383648066556795 0.4027552809401141 0.38155712858604063 0.3601255680249484 0.3383431842755327 0.31611550841248537 0.29343561280907443 0.27055595166678675 0.24844167487978797 0.22990855624235695 0.22990855624235695
          1.5396689861258985 1.5396689861258985 1.5298223402408937 1.5132642312327327 1.4907846230916697 1.463341757688612 1.4319489031637216 1.3975835559123393 1.3611272244826402 1.323334214075289 1.2848229384970122 1.2460821634223893 1.2074855603943666 1.1693096904131637 1.1317522607044999 1.0949488756692838 1.0589874662179484 1.0239201865937035 0.9897729071752919 0.9565525938362689 0.9242529181419263 0.8928584360919589 0.8623476371902741 0.8326951188120737 0.8038730933143414 0.7758523920987284 0.7486030938567751 0.7220948738291482 0.6962971466106829 0.6711790560366352 0.6467093511638602 0.6228561766101856 0.5995867980647336 0.5768672795014377 0.5546621278952458 0.5329339252445376 0.5116429790204442 0.4907470458686285 0.4702012292260389 0.44995823822726544 0.42996935942619624 0.4101868071862651 0.390568730669631 0.3710893684720058 0.35175927615060654 0.33266541672405475 0.31405021615060374 0.2964640845976052 0.2810395230791175 0.26988751184806825 0.26988751184806825
          1.4744434998306322 1.4744434998306322 1.4663261011525124 1.4526001115385252 1.4338169070908653 1.4106625563750956 1.3838852359810554 1.354232238455186 1.3224034308070194 1.2890224097532705 1.254623017558198 1.219647340320888 1.184451199130841 1.1493137846905972 1.1144489735811698 1.0800167091755142 1.0461335073755675 1.0128816320269065 0.9803168006508927 0.9484744677815702 0.9173748299553517 0.8870267353228818 0.8574306854190742 0.8285811027729676 0.8004680158907728 0.7730782887306435 0.7463964984204045 0.7204055442708908 0.6950870537412492 0.6704216370326631 0.6463890313257079 0.6229681682331938 0.6001371938757988 0.5778734704926984 0.5561535926192996 0.5349534614564874 0.5142484814951345 0.4940139796938078 0.47422600991657377 0.4548628120064004 0.43590737727261525 0.4173518846509004 0.39920530574184865 0.38150637570735074 0.3643455758669221 0.34790186126032446 0.33250197179303254 0.31870890074379976 0.3074297087889952 0.2999706927123361 0.2999706927123361
          1.42016934025458 1.42016934025458 1.4133263979580195 1.401704983631491 1.385700980397641 1.3658170792237028 1.342615405861726 1.3166738006005867 1.2885508089920885 1.2587613023391517 1.2277622737489102 1.1959470122542162 1.163645389607849 1.1311280978673324 1.0986130641061536 1.0662727380990167 1.034241383615329 1.0026218538765532 0.971491587136402 0.9409077299434558 0.910911401543433 0.8815311714783344 0.8527858493220759 0.8246866925451068 0.7972391341602155 0.7704441217132693 0.7442991469250861 0.718799033013183 0.6939365356448476 0.6697028042602191 0.6460877435364802 0.6230803103440892 0.600668780067897 0.5788410182885346 0.5575848006740253 0.5368882374154981 0.5167403817567513 0.4971321400880969 0.4780576615240757 0.4595164798660084 0.4415168279849847 0.42408076753634405 0.40725210031362735 0.39110845580263776 0.37577939719747594 0.3614724913030082 0.34850795718658467 0.3373570731070884 0.32866479667045867 0.3232072871758583 0.3232072871758583
          1.3749676500988561 1.3749676500988561 1.3690787913257558 1.3590430242670042 1.345152347179721 1.3277837079515358 1.3073674487550622 1.284356722930145 1.2592014199529595 1.2323284046807756 1.2041283807688101 1.1749486801658502 1.1450907734449414 1.1148111746507963 1.0843245322378994 1.0538079283196908 1.0234056649761394 0.9932340495380247 0.9633858792918537 0.9339344660436611 0.9049371376046169 0.8764382151880303 0.8484715019589169 0.8210623364238601 0.7942292712052834 0.767985437595267 0.7423396523412015 0.7172973175367036 0.6928611586844237 0.6690318408779522 0.6458084992483553 0.6231892178507934 0.6011714915700157 0.5797527091082502 0.5589307027079345 0.5387044234672593 0.5190748221363226 0.5000460472540339 0.4816271195552606 0.4638343086822221 0.4466945297167557 0.430250192373832 0.4145660582990438 0.3997387331375797 0.3859092839222364 0.3732787734021729 0.36212454147992934 0.3528107381515584 0.3457789914069284 0.34149609307598333 0.34149609307598333
          1.3374144698374235 1.3374144698374235 1.3322477606988774 1.3234182235188474 1.3111469951880248 1.295723469724555 1.2774838140348173 1.2567892995878271 1.2340068708928664 1.2094934247364622 1.1835843543270608 1.1565862074211226 1.128772874810267 1.1003845361590268 1.0716285765117481 1.0426817772670023 1.013693222212012 0.9847875033310614 0.9560679405554804 0.9276196349094761 0.8995122540029526 0.8718025051196744 0.8445362885673866 0.8177505470786162 0.7914748399789151 0.7657326769138562 0.7405426477023834 0.7159193842338732 0.6918743885847184 0.6684167596471517 0.645553849240226 0.6232918784831837 0.6016365467017043 0.5805936689185105 0.56016988480446 0.5403734927873656 0.5212154789946988 0.5027108331003087 0.4848802729120757 0.4677525363203614 0.4513674390554817 0.43577992718406 0.42106534426765635 0.407326020260099 0.39469894918913306 0.38336354797429356 0.373547000767478 0.3655223074218318 0.35959134056823305 0.35604433338742414 0.35604433338742414
          1.3064144249684677 1.3064144249684677 1.301797642336498 1.2938903208854882 1.2828644693589117 1.268947778025046 1.252408642188783 1.2335405493445057 1.212647481330247 1.190031465716369 1.1659828522267213 1.1407734145796558 1.1146520439261753 1.0878426119307578 1.0605435133487493 1.032928412453876 1.005147779434441 0.9773308843921309 0.9495879995516459 0.9220126344194037 0.8946836894549 0.8676674606056766 0.8410194611206847 0.8147860506003983 0.789005876649218 0.7637111439557788 0.7389287309777497 0.7146811771084677 0.6909875643729995 0.6678643181899664 0.6453259521962602 0.6233857830935784 0.602056643402842 0.5813516233491103 0.5612848782885891 0.5418725455487505 0.5231338245678969 0.5050922866799409 0.4877774947244577 0.4712270247556831 0.45548898533321325 0.44062510967867174 0.4267144253890136 0.41385733968318383 0.40217964702562664 0.391835389592624 0.38300663707381194 0.3758972368628718 0.3707170078387786 0.36765407812664797 0.36765407812664797
          1.281114868640051 1.281114868640051 1.276916964312681 1.269714304304392 1.2596444652473726 1.2468913225585405 1.2316743328718365 1.214237043938693 1.194835966839418 1.173730663475348 1.1511755647895177 1.1274137204390433 1.1026724348749795 1.0771605832918787 1.051067317391976 1.0245618480030518 0.9977940091469507 0.970895348239502 0.9439805361279121 0.917148939663121 0.890486243376208 0.864066043336864 0.8379513650164016 0.8121960785989378 0.7868462008056345 0.7619410831710427 0.7375144940237609 0.7135956062055668 0.6902099056630708 0.6673800381441264 0.6451266128670187 0.6234689836329346 0.6024260297650588 0.5820169617484292 0.5622621796876413 0.5431842167111393 0.5248088039464563 0.5071660978081478 0.49029211215085156 0.4742303935434983 0.4590339606237085 0.4447674865861416 0.4315096194136059 0.4193551830497737 0.4084167582532668 0.398824793634745 0.3907249902229565 0.38427140944684834 0.37961396081989096 0.376880228386179 0.376880228386179
          1.2608462159795708 1.2608462159795708 1.2569650014643123 1.250296413549523 1.2409538099521336 1.2290899264705595 1.214888969110739 1.1985579305449992 1.1803179242803383 1.160396176816738 1.1390191137311962 1.1164067683948655 1.0927685652671129 1.068300399638803 1.0431828545669197 1.0175803569825785 0.9916410680491101 0.9654973168566768 0.9392664120984642 0.9130516964672317 0.8869437384800747 0.8610215835855266 0.8353540094781678 0.8100007492471842 0.7850136605880975 0.7604378303665333 0.7363126119943721 0.7126725990081111 0.6895485425078051 0.6669682232159181 0.6449572912495813 0.6235400885776454 0.6027404707753975 0.5825826462123992 0.563092052194156 0.5442962886019354 0.5262261296800326 0.5089166327071881 0.49240835639784736 0.4767486887448019 0.4619932585531585 0.4482073598394516 0.43546724438466666 0.42386102607920956 0.413488788640882 0.40446131237732513 0.3968966932465021 0.3909141423759101 0.3866246236662354 0.3841189147536911 0.3841189147536911
          1.2450797024425257 1.2450797024425257 1.2414334360238435 1.2351618263941808 1.2263613218212779 1.215162740704375 1.2017252156130855 1.1862294061174081 1.1688705508986323 1.1498518470525163 1.129378519663119 1.1076528072326164 1.084869961610229 1.0612152586976689 1.0368619437670388 1.0119699916486375 0.9866855425442432 0.9611408725661852 0.9354547681796149 0.9097331903872591 0.884070133870594 0.8585486057616708 0.8332416666798894 0.8082134923259 0.7835204270163006 0.7592120111393182 0.7353319728691915 0.7119191809312688 0.6890085601093137 0.6666319748510398 0.6448190890245648 0.6235982118052 0.6029971409423578 0.5830440152777143 0.5637681882246975 0.5452011326455303 0.527377384563158 0.5103355274080051 0.4941192084609247 0.4787781625580307 0.4643691919750978 0.45095701223480933 0.43861481839281147 0.42742435497508424 0.4174751922524147 0.40886284340414475 0.40168534555657615 0.39603804351525357 0.39200664136597135 0.38965916636559944 0.38965916636559944
          1.233397026790226 1.233397026790226 1.2299185040663982 1.2239307213087824 1.2155186291542728 1.2047980532339462 1.1919108362729314 1.1770193024513964 1.1603004715912648 1.1419404070284367 1.122129003115187 1.1010554246366486 1.0789043172985817 1.0558528272803382 1.0320684047330067 1.0077073226087607 0.9829138167820191 0.9578197428035887 0.9325446449720736 0.907196141042157 0.8818705377272895 0.8566536058334553 0.8316214577298093 0.8068414828750566 0.7823733086983407 0.7582697640380487 0.7345778305485342 0.7113395740992533 0.688593053379581 0.6663732068639726 0.6447127221414658 0.6236428934764543 0.6031944743772121 0.5833985318411536 0.5642873076324797 0.5458950890798289 0.528259086909532 0.5114203097655274 0.49542441326561926 0.48032248445404246 0.46617169907085254 0.4530357583835752 0.4409849750827823 0.43009583774478133 0.42044985007056207 0.41213143247845174 0.40522471763103296 0.39980920249569624 0.39595446379179866 0.3937144891823889 0.3937144891823889
          1.225468296401835 1.225468296401835 1.2221005736693729 1.2163004343769654 1.2081455107089418 1.1977420432016586 1.185220755346533 1.1707320962764394 1.1544411905561378 1.1365228129270364 1.1171566547263045 1.096523081014009 1.0747995054602073 1.0521574431971878 1.0287602461108114 1.0047614831525462 0.9803039003605329 0.9555188798519055 0.9305263116793323 0.9054347944752928 0.8803420877518432 0.8553357484922924 0.8304938956531063 0.8058860572436175 0.7815740650228695 0.7576129711179923 0.7340519688271966 0.7109353064750512 0.6883031884784752 0.6661926618359268 0.6446384891440208 0.6236740110151624 0.6033320013961667 0.5836455186671519 0.5646487533243851 0.5463778691927449 0.5288718290209012 0.5121731864270893 0.4963288138874688 0.4813905203066537 0.467415491600198 0.45446646447821837 0.4426115197500431 0.43192336216759303 0.4224779480311287 0.4143523426490582 0.4076217532852067 0.4023558032766034 0.39861429081131833 0.3964428851803627 0.3964428851803627
          1.2210359177504508 1.2210359177504508 1.2177291066299307 1.212032123480357 1.2040186934734183 1.193789909756686 1.181470496350423 1.1672044646479192 1.1511504568639173 1.1334770603762885 1.1143583383068414 1.093969766875691 1.072484709103636 1.050071495450089 1.0268911306507589 1.0030956055074374 0.9788267636278913 0.9542156554462867 0.929382303617177 0.9044358029736028 0.8794746825432038 0.8545874647171778 0.8298533660052612 0.805343093707409 0.7811197024672247 0.7572394835200014 0.7337528672157859 0.7107053259533329 0.6881382699733605 0.6660899325483179 0.6445962439985877 0.6236916956641069 0.6034101954160782 0.5837859153826198 0.5648541300737723 0.5466520387227414 0.5292195590335742 0.5126000702376543 0.4968410710925232 0.4819947031662445 0.4681180719968156 0.4552732801183931 0.44352706977040784 0.4329499648474693 0.42361480930523454 0.4155946327064376 0.4089598423778423 0.40377485011764447 0.400094381470883 0.39795985802816736 0.39795985802816736
          1.2210359177504508 1.2210359177504508 1.2177291066299307 1.212032123480357 1.2040186934734183 1.193789909756686 1.181470496350423 1.1672044646479192 1.1511504568639173 1.1334770603762885 1.1143583383068414 1.093969766875691 1.072484709103636 1.050071495450089 1.0268911306507589 1.0030956055074374 0.9788267636278913 0.9542156554462867 0.929382303617177 0.9044358029736028 0.8794746825432038 0.8545874647171778 0.8298533660052612 0.805343093707409 0.7811197024672247 0.7572394835200014 0.7337528672157859 0.7107053259533329 0.6881382699733605 0.6660899325483179 0.6445962439985877 0.6236916956641069 0.6034101954160782 0.5837859153826198 0.5648541300737723 0.5466520387227414 0.5292195590335742 0.5126000702376543 0.4968410710925232 0.4819947031662445 0.4681180719968156 0.4552732801183931 0.44352706977040784 0.4329499648474693 0.42361480930523454 0.4155946327064376 0.4089598423778423 0.40377485011764447 0.400094381470883 0.39795985802816736 0.39795985802816736
        </DataArray>
      </PointData>
      <CellData/>
    </Piece>
  </ImageData>
</VTKFile>
