<?xml version="1.0"?>
<VTKFile type="ImageData" version="0.1" byte_order="LittleEndian">
  <ImageData WholeExtent="0 50 0 25 0 0" Origin="0.0 0.0 0.0" Spacing="0.02 0.02 1.0">
    <Piece Extent="0 50 0 25 0 0">
      <PointData Scalars="Density">
        <DataArray type="Float32" Name="Density" format="ascii">
          10.0 9.13472501895524 8.546711970479715 8.163086043915571 7.9064742519120115 7.727794503326426 7.5982132953914965 7.500715358906466 7.424973010490974 7.364497245606173 7.3150668766604 7.273845326721599 7.238869639189453 7.208745479438084 7.182459373332684 7.1592596691576365 7.138578974834409 7.119982330699369 7.103131772091926 7.0877615846773 7.073660692638358 7.060659903424639 7.0486225220195715 7.037437343862808 7.0270133539764235 7.01727566812882 7.008162390564159 6.999622156719017 6.991612193898944 6.984096777906949 6.97704599543724 6.97043474482453 6.964241924235971 6.958449768475006 6.953043304508857 6.94800990251697 6.943338904303602 6.939021314761373 6.93504954502602 6.931417198251778 6.9281188907255995 6.925150102448148 6.92250705242939 6.920186594843879 6.918186132916271 6.916503547999245 6.915137141793969 6.914085590070003 6.913347906587859 6.9129234162452455 6.9129234162452455
          10.0 9.13472501895524 8.546711970479715 8.163086043915571 7.9064742519120115 7.727794503326426 7.5982132953914965 7.500715358906466 7.424973010490974 7.364497245606173 7.3150668766604 7.273845326721599 7.238869639189453 7.208745479438084 7.182459373332684 7.1592596691576365 7.138578974834409 7.119982330699369 7.103131772091926 7.0877615846773 7.073660692638358 7.060659903424639 7.0486225220195715 7.037437343862808 7.0270133539764235 7.01727566812882 7.008162390564159 6.999622156719017 6.991612193898944 6.984096777906949 6.97704599543724 6.97043474482453 6.964241924235971 6.958449768475006 6.953043304508857 6.94800990251697 6.943338904303602 6.939021314761373 6.93504954502602 6.931417198251778 6.9281188907255995 6.925150102448148 6.92250705242939 6.920186594843879 6.918186132916271 6.916503547999245 6.915137141793969 6.914085590070003 6.913347906587859 6.9129234162452455 6.9129234162452455
          10.0 8.926023384185187 8.388142094637784 8.062979064493016 7.844700525280612 7.688886794619048 7.572879449457005 7.48363029784347 7.413066464154576 7.355954457274086 7.308781158682443 7.269119604329285 7.235250974808427 7.205930955263001 7.180241010613817 7.157491249719357 7.137155491696071 7.118826922808643 7.102187212785174 7.086984610792003 7.073018147373487 7.060126062558769 7.048177207781618 7.037064572848584 7.02670035340301 7.017012150191888 7.007940010333201 6.999434102345114 6.991452873431788 6.98396157749838 6.976931090886027 6.970336953397915 6.964158587203071 6.95837865727476 6.95298254526295 6.947957914896241 6.943294351708218 6.938983063479252 6.935016630559805 6.931388797400161 6.928094298304776 6.925128711768295 6.922488338816949 6.920170101636581 6.918171459463236 6.916490339280994 6.915125079341837 6.914074383916505 6.913337288022024 6.9129131311686365 6.9129131311686365
          8.372009563856311 8.372009563856311 8.122950763293831 7.9175577429404465 7.757831856177515 7.633876577602937 7.536461114580614 7.458626466851298 7.395362015964294 7.343083194899159 7.299209373964414 7.261861953214091 7.2296556411443325 7.2015552112296355 7.176776871843725 7.154719788720899 7.134918023053668 7.117006387210965 7.100695879500691 7.085755785192864 7.072000471773727 7.059279529849033 7.04747032733529 7.036472325000017 7.0262026922660645 7.016592893477364 7.007586006109686 6.999134596572182 6.991199024823806 6.983746081741932 6.976747886897204 6.970180991750796 6.964025646120546 6.95826519533013 6.952885582653116 6.947874937124755 6.943223230971705 6.938921994131294 6.93496407583538 6.931343445194258 6.928055024263126 6.925094548303308 6.9224584489357275 6.92014375667957 6.918148020016819 6.916469238655521 6.915105809106531 6.914056481059933 6.913320323364063 6.912896698684258 6.912896698684258
          8.011305224374693 8.011305224374693 7.896256786999707 7.7747154214367775 7.6653088868785755 7.572032069490618 7.493869486915587 7.428489349742972 7.373516494829025 7.32690626848637 7.2870030971701665 7.252499129898692 7.222370204784826 7.195815070334277 7.172204940507436 7.151043839012651 7.131938162401138 7.114573542283463 7.098697291985061 7.084105060118827 7.070630635232806 7.058138110126905 7.04651581851953 7.03567160954243 7.025529138269483 7.016024933137025 7.007106061640909 6.998728260103095 6.9908544260047085 6.983453395588621 6.9764989474549175 6.969968986372409 6.9638448717096235 6.958110862617384 6.952753658003038 6.947762013883314 6.943126424226528 6.938838854143741 6.934892516448118 6.931281684309217 6.928001534088592 6.925048013532867 6.922417731380134 6.920107865150937 6.9181160844813006 6.916440487839928 6.91507955087625 6.914032084987634 6.913297204986199 6.9128743049990735 6.9128743049990735
          7.784088724589716 7.784088724589716 7.725892307231271 7.653021376970055 7.579210548862499 7.510705458173641 7.449596785765508 7.396020388961797 7.349318767568634 7.30859309190253 7.27294418171137 7.241565133388593 7.21376677754186 7.188974752354498 7.166716135472789 7.146603604639501 7.1283204181294675 7.111607363734832 7.096251885094047 7.082079215814362 7.068945229110998 7.056730698627471 7.045336697125683 7.0346809032816076 7.024694629890882 7.015320424542291 7.006510125078734 6.998223277278523 6.990425842028788 6.983089134794783 6.976188952296747 6.96970485073329 6.963619547236648 6.957918421982435 6.952589102871865 6.9476211182402325 6.9430056058387155 6.938735068554221 6.934803169100661 6.931204557334075 6.9279347249878835 6.924989883552423 6.92236686177984 6.920063019917088 6.91807617828362 6.9164045582389315 6.9150467339453945 6.914001593638122 6.913268309377233 6.912846314488116 6.912846314488116
          7.6326593173068975 7.6326593173068975 7.600044383457898 7.554515136889467 7.504156733460238 7.454024846967991 7.406751261038114 7.3634349264934436 7.324321918109578 7.289231906160882 7.257800450444869 7.229607441368209 7.204240515718836 7.1813231522161995 7.160524394508245 7.141559507430644 7.124186528639807 7.108201281748316 7.0934321229375215 7.07973500747339 7.066989108002036 7.055093039662767 7.043961664261773 7.033523411726968 7.023718047531467 7.014494816859086 7.005810903286671 6.997630148288131 6.989921986297038 6.9826605576953815 6.9758239686895305 6.969393672584047 6.963353951561752 6.957691481852423 6.952394968254825 6.9474548364874895 6.942862973888222 6.938612510648346 6.934697635128037 6.931113437912458 6.927855780183101 6.92492118273236 6.9223067325738405 6.920010004620277 6.918028996335821 6.916362073635953 6.915007926619621 6.913965533985242 6.913234135214149 6.912813209809037 6.912813209809037
          7.525680733157297 7.525680733157297 7.505693679863462 7.475840563898366 7.440664257393277 7.403654082659634 7.367076929137179 7.332218922033794 7.2996970114637465 7.269715189343842 7.24224295948188 7.217128999543267 7.1941692695341555 7.173145710376294 7.153846914680338 7.136078160372671 7.119665384916639 7.1044558482760305 7.090317094306759 7.077135131084811 7.064812341499633 7.053265396420947 7.042423305441648 7.03222566295713 7.022621105182655 7.01356597180151 7.005023155537615 6.9969611189440455 6.9893530571281826 6.982176186295256 6.975411139926279 6.969041456588477 6.963053145529662 6.957434318199279 6.952174875613315 6.947266243027 6.942701144708442 6.938473412738908 6.934577824725174 6.931009966120499 6.92776611353527 6.924843135996717 6.922238411605754 6.919949757453703 6.917975371014403 6.916313781529058 6.914963810160914 6.91392453792266 6.913195280577002 6.91277556988727 6.91277556988727
          7.446515621103518 7.446515621103518 7.433357432479044 7.412852987708638 7.387580985435801 7.359830551325363 7.33132657036387 7.303226452480272 7.27622938140375 7.250705837239352 7.226808660198564 7.204555922699767 7.183888031358762 7.1647049880449885 7.146889648909754 7.130321611597545 7.114885057078897 7.100472806697922 7.086988077325726 7.074344883249936 7.06246767946136 7.051290611987465 7.040756595262116 7.030816345143709 7.0214274396070655 7.012553444590464 7.004163121772049 6.996229722954656 6.9887303689514315 6.981645507313034 6.974958441623787 6.968654924615552 6.96272280750737 6.957151738475822 6.951932903812495 6.947058806026075 6.942523073836675 6.938320299657594 6.934445900749723 6.930896000762045 6.927667328838394 6.924757133880191 6.922163111912679 6.919883344813795 6.917916248936617 6.9162605323935065 6.91491515997811 6.913879324884808 6.913152426548325 6.91273405407328 6.91273405407328
          7.3858460537890664 7.3858460537890664 7.376680002276617 7.361999248296625 7.343314176205952 7.322113216217648 7.2996459005917504 7.2768531387304725 7.254384705940993 7.232653419245496 7.211895875032477 7.192225866977414 7.173676190803392 7.156229138092318 7.139837679096246 7.124439618135613 7.1099667196970415 7.096350364227742 7.083524875384091 7.071429322404695 7.060008348135945 7.049212392237953 7.038997553439144 7.029325249211884 7.020161773927727 7.011477818583899 7.003247990310664 6.995450353742004 6.988066006014277 6.98107869066737 6.9744744517366275 6.96824132696374 6.962369077739307 6.956848952738104 6.951673481968921 6.946836297972195 6.94233198105454 6.938155925682792 6.934304225428606 6.930773574132147 6.927561181224234 6.924664699402008 6.922082163089661 6.9198119363310155 6.917852668955753 6.916203260036387 6.914862827810862 6.91383068538792 6.913106321681203 6.912689387135968 6.912689387135968
          7.338114844680127 7.338114844680127 7.331434375816911 7.320534752495378 7.306334876462111 7.28981215501234 7.271856745044677 7.253199190113555 7.234393673770066 7.215833314530624 7.19777902030674 7.180390615131972 7.16375466677702 7.1479070281636226 7.13284999716166 7.11856481769309 7.105020477125095 7.092179710336616 7.080002971900771 7.0684509698032185 7.057486203342249 7.047073825745807 7.037182058667154 7.027782316845725 7.0188491516306595 7.010360086971451 7.002295396966411 6.9946378571174 6.9873724898403005 6.980486316915665 6.973968126287414 6.967808257123906 6.961998404782909 6.956531445879545 6.951401282774729 6.946602706295564 6.942131275240754 6.937983211127463 6.934155306641248 6.930644846318577 6.927449538095163 6.9245674544753815 6.921996982207126 6.919736779475656 6.917785739754681 6.9161429615714365 6.914807723553211 6.913779464226142 6.913057766133081 6.9126423439271 6.9126423439271
          7.299816087509579 7.299816087509579 7.29476286310196 7.286410126132344 7.275338733608923 7.2622024635629 7.247635158535838 7.232192912722323 7.216328804011634 7.200390611701274 7.1846315712144895 7.16922663582964 7.154289548199441 7.139888275526227 7.126057839403595 7.1128104095148394 7.100142935780587 7.08804274179026 7.0764915149666 7.065468080175936 7.05495027448165 7.0449161718518765 7.035344846514415 7.02621681478545 7.017514257165584 7.0092210937361665 7.001322964576652 6.99380715136643 6.986662465111036 6.979879116914886 6.973448583046357 6.967363471557995 6.96161739495729 6.956204851522676 6.951121116573379 6.946362144148564 6.941924479001085 6.9378051784716845 6.934001743614555 6.9305120588488585 6.927334339379639 6.924467085643777 6.921909044075203 6.919659173538729 6.917716616845413 6.916080676830083 6.9147507965401545 6.913726543152389 6.913007595299921 6.912593733555058 6.912593733555058
          7.2686318434514074 7.2686318434514074 7.26468747586679 7.258105330256589 7.2492660545298495 7.238616697683721 7.2266123164957605 7.213673843015802 7.200164182245957 7.18637939738529 7.172550140325343 7.158848832475124 7.145399253691851 7.13228641457758 7.11956555681391 7.107269785203431 7.095416230738371 7.084010852068013 7.073052071812237 7.0625334650612555 7.052445703523627 7.042777930235808 7.033518707622672 7.024656651505506 7.016180837668619 7.008081046364461 7.000347893369752 6.992972883273406 6.985948410875866 6.979267729250217 6.972924897594218 6.966914718030048 6.961232667623263 6.9558748298151265 6.9508378279803384 6.946118762776896 6.941715154226589 6.937624888966577 6.933846172779205 6.930377488292079 6.927217557608419 6.924365309554259 6.921819851195739 6.919580443274031 6.917646479218011 6.916017467418792 6.914693016482203 6.913672823210818 6.9129566631055885 6.9125443832160975 6.9125443832160975
          7.242969435527599 7.242969435527599 7.239805346258973 7.234487336231579 7.2272732648335065 7.218476006256287 7.208426539166389 7.197444353432351 7.185817823338706 7.173794032402047 7.161575940573576 7.149324418497523 7.137162991316901 7.125183701316307 7.113453060749433 7.102017515096981 7.09090815093155 7.080144579741081 7.069738039714139 7.059693810363655 7.050013052420052 7.040694183336566 7.0317338870977935 7.023127841826894 7.014871233262518 7.00695910815323 6.999386609635552 6.99214912682365 6.985242382979486 6.9786624804782695 6.972405916038793 6.9664695760735365 6.960850719288096 6.955546951623138 6.950556197123298 6.945876667208833 6.9415068300186435 6.93744538091094 6.933691214793127 6.930243400660867 6.92710115852553 6.92426383877441 6.921730903920947 6.919501912649373 6.9175765060298655 6.91595439576882 6.914635354359504 6.913619207006968 6.912905825215221 6.912495121942396 6.912495121942396
          7.221699254285689 7.221699254285689 7.219098556368518 7.214703230434831 7.208693366103413 7.201293115660789 7.192747036913369 7.183299561780412 7.1731798259855655 7.162592266264757 7.151712223991808 7.140685291508009 7.1296291010526325 7.118636464769255 7.107779063492646 7.097111157341185 7.086673011836435 7.076493891245679 7.066594573780758 7.0569894041405 7.04768793044343 7.038696185305421 7.030017672325055 7.021654114738702 7.013606015794536 7.005873072429201 6.998454476183794 6.991349128481653 6.984555791593358 6.978073191835 6.971900087694513 6.96603531253003 6.960477799100118 6.955226591343144 6.950280847412081 6.945639836899566 6.9413029343806665 6.937269610796684 6.933539423755042 6.930112007489831 6.926987062986768 6.924164348602266 6.921643671382275 6.919424879199795 6.9175078537706325 6.915892504567577 6.914578763628813 6.913566581242204 6.912855922480903 6.912446764564729 6.912446764564729
          7.203998783560381 7.203998783560381 7.201813264060822 7.198103521248041 7.1929989557244 7.186663936994183 7.179282362564222 7.171043407094588 7.16213011024335 7.152711428733167 7.1429376047824364 7.132938265213619 7.122822513011558 7.112680306796978 7.102584550171111 7.092593465885259 7.082752971480473 7.073098887083145 7.063658889282799 7.05445418094741 7.045500881345379 7.036811160037428 7.028394146750098 7.020256651716274 7.012403729509724 7.004839116041409 6.997565564278035 6.990585100067591 6.983899215578771 6.977509014449376 6.971415319842806 6.965618754215718 6.960119797654585 6.954918830082709 6.950016161408645 6.945412052723053 6.941106730902012 6.937100398396708 6.933393239545834 6.929985424408748 6.92687711086038 6.924068445494919 6.9215595637393985 6.919350589469232 6.917441634336618 6.915832796962776 6.914524162100959 6.913515799845017 6.912807764935162 6.912400096195616 6.912400096195616
          7.189255875599333 7.189255875599333 7.187381130388903 7.184187861714004 7.179771600997221 7.174255719275669 7.167781141189343 7.160496375369577 7.1525490136982075 7.14407928820561 7.135215786710634 7.126073099765519 7.116751006149263 7.107334764658866 7.097896118340231 7.088494692446986 7.079179551002332 7.069990752817928 7.0609608092535066 7.052115991612025 7.043477467537323 7.035062265936782 7.026884081727329 7.018953937658832 7.011280722622132 7.003871625683565 6.996732483634286 6.98986805778134 6.983282253462695 6.976978293587743 6.970958855518646 6.965226178871649 6.959782150342914 6.954628370436513 6.949766205967562 6.945196831400357 6.9409212614296365 6.936940376694453 6.933254944103701 6.929865632929314 6.926773027569332 6.923977637684424 6.92147990625618 6.919280215994107 6.917378894423408 6.915776217911327 6.914472414831524 6.913467668019717 6.912762116637227 6.9123558575291 6.9123558575291
          7.177006603330783 7.177006603330783 7.175367053333504 7.172566621455166 7.168677733381271 7.163795209136024 7.158029259142539 7.151498419771461 7.144323217438852 7.136621041701092 7.128502408008911 7.120068560969128 7.111410227914825 7.102607270830118 7.093728980191114 7.0848347837464605 7.075975187819341 7.067192815659997 7.058523449543831 7.049997017596072 7.0416384921982935 7.0334686851355945 7.025504936779563 7.017761704059488 7.010251056081577 7.002983088090997 6.995966264851879 6.989207704033619 6.982713409241345 6.976488461178488 6.970537174243579 6.964863224736596 6.959469755830723 6.954359463573401 6.949534667417204 6.944997368139552 6.9407492954770875 6.936791947361878 6.933126622288019 6.929754446045405 6.926676393820916 6.923893308475574 6.921405915651308 6.919214836235171 6.917320596606978 6.915723637013034 6.914424318340368 6.913422927509454 6.912719681656243 6.9123147312339235 6.9123147312339235
          7.1668940996044 7.1668940996044 7.1654336284854425 7.16293349334355 7.159450098252643 7.155058138594266 7.149845717887565 7.143909256639152 7.137348731451334 7.130263614086066 7.122749698168892 7.11489684625481 7.10678758102928 7.098496383074754 7.090089535379196 7.081625359459432 7.073154708072396 7.06472160602345 7.056363957589562 7.04811426319635 7.040000307765478 7.03204579834031 7.024270939627808 7.016692943675638 7.009326474805856 7.002184033853764 6.995276287298645 6.988612347479159 6.982200010099591 6.97604595489592 6.970155914807897 6.964534818403647 6.959186909694404 6.95411584889847 6.949324797185821 6.94481648796701 6.940593286882713 6.936657242301019 6.933010127832477 6.929653478122321 6.926588618968516 6.923816692637819 6.921338679103902 6.919155413807813 6.917267602436754 6.915675833129354 6.9143805864411085 6.913382243339994 6.912681091447219 6.912277329689892 6.912277329689892
          7.158640578968119 7.158640578968119 7.157316492179469 7.155045778066428 7.1518736099079945 7.147860390397545 7.1430782563463815 7.1376073309593515 7.131532093561983 7.124938144785433 7.117909535198787 7.110526722785268 7.10286514453548 7.094994334769579 7.086977495550939 7.078871417056501 7.070726651457566 7.062587856892222 7.054494244047993 7.046480073793917 7.038575168545147 7.03080541187658 7.023193220190803 7.015757977194084 7.0085164269030145 7.001483024294873 6.994670244902803 6.988088855966747 6.981748152440806 6.975656161428419 6.969819818615788 6.9642451201069 6.958937252804754 6.953900706181146 6.949139367964442 6.944656605970073 6.940455338013598 6.936538091586311 6.932907054740849 6.929564119428434 6.926510918349124 6.923748856219244 6.921279136223543 6.919102782301276 6.917220657812659 6.915633481042805 6.9143418379222075 6.913346192274607 6.912646893842386 6.912244184285585 6.912244184285585
          7.152027894213747 7.152027894213747 7.1508069051399 7.148710046705025 7.145774591319008 7.142050781904494 7.137599252174881 7.132488193401239 7.1267905262434015 7.120581286314659 7.113935365535423 7.106925683772193 7.099621807623647 7.092088990795163 7.084387584030331 7.0765727499015085 7.06869441547393 7.06079740038313 7.052921666149983 7.045102642313889 7.037371594672251 7.02975600969191 7.02227997659453 7.014964554614471 7.0078281175685735 7.000886671339235 6.994154142362927 6.987642636939631 6.981362672316017 6.975323381198384 6.969532691742064 6.963997485236125 6.9587237337272985 6.953716619756107 6.948980640249794 6.944519696456084 6.940337171627235 6.93643599798739 6.932818714344787 6.929487515548882 6.926444294843112 6.923690680027621 6.9212280642230315 6.919057631915544 6.917180380864549 6.915597140365139 6.914308586278449 6.913315253171481 6.912617543843788 6.9122157364603005 6.9122157364603005
          7.146883770778473 7.146883770778473 7.145739258516051 7.143771610295018 7.141012581295583 7.137505262310875 7.133302103469354 7.1284626988835615 7.123051518146083 7.117135743668629 7.110783332158951 7.104061373698177 7.097034780483849 7.08976530391239 7.082310855032694 7.074725089163929 7.067057209075237 7.059351940541914 7.05164963732806 7.043986478020969 7.036394723394206 7.028903009246769 7.0215366554362255 7.014317976831463 7.0072665860670345 7.000399681308178 6.993732314814908 6.9872776400334535 6.981047136357945 6.975050811701191 6.969297383684724 6.963794440683927 6.958548584208092 6.953565554208346 6.9488503389276035 6.94440727086588 6.940240110353441 6.936352118119434 6.932746118126299 6.929424551818535 6.9263895248134775 6.923642846945335 6.921186066463594 6.919020499084368 6.917147252498581 6.915567246853874 6.914281231647399 6.913289799393575 6.912593396363979 6.912192330635811 6.912192330635811
          7.143071914018594 7.143071914018594 7.141981996964501 7.140106719096599 7.137474083579539 7.13412228796518 7.130098138286199 7.12545524146089 7.120252115339889 7.114550341468384 7.108412860226375 7.101902477462489 7.095080621359864 7.0880063617907885 7.080735683813722 7.07332099275404 7.0658108199821585 7.058249694995897 7.050678149474861 7.04313282140588 7.035646631172304 7.02824900588589 7.02096613267875 7.01382122582288 7.006834796218296 7.0000249149086615 6.993407464841016 6.986996377121253 6.980803849591432 6.974840546738166 6.969115780803203 6.963637674571919 6.9584133067190095 6.953448840840489 6.9487496394364054 6.944320364160349 6.940165063644493 6.936287250161291 6.932689966309436 6.929375842822429 6.926347148501188 6.923605833172561 6.921153564477034 6.9189917591939 6.917121609721895 6.915544106248322 6.914260055060434 6.913270093378499 6.912574701020568 6.912174209144524 6.912174209144524
          7.140484822082086 7.140484822082086 7.1394309636259505 7.137616747922531 7.135067789615771 7.1318191575313765 7.127914027437722 7.123402128021448 7.118338090545683 7.112779805744121 7.106786874821829 7.100419219351602 7.093735891368741 7.0867941031508 7.0796484779714035 7.072350509425876 7.064948207793435 7.0574859068261 7.050004202552178 7.0425399962857735 7.035126616231935 7.027793995188815 7.020568885347826 7.0134750947072595 7.006533732902689 6.999763457180958 6.993180711743446 6.986799955750474 6.980633876937017 6.97469358908408 6.968988812570998 6.963528037954674 6.958318673031196 6.953367174177886 6.948679162987441 6.944259529322044 6.940112521959871 6.936241827999522 6.932650642145972 6.929341726936114 6.926317464882602 6.923579903427704 6.921130793509251 6.918971622451359 6.917103641806088 6.915527890689081 6.914245215073675 6.9132562834330225 6.9125615990473745 6.91216150921961 6.91216150921961
          7.139038536303033 7.139038536303033 7.138004499619672 7.136223850441247 7.133720928155378 7.130529121240793 7.126689646538034 7.122250130035704 7.117263084750828 7.111784378201906 7.105871769374796 7.099583577195448 7.092977522629625 7.086109767274744 7.079034154547763 7.071801646331214 7.064459938525124 7.057053233146783 7.049622141882784 7.042203695644601 7.034831436016491 7.027535566890032 7.020343147545075 7.0132783115788655 7.006362499137931 6.99961469270362 6.993051649132612 6.986688122724483 6.980537075785111 6.974609874504061 6.968916469008168 6.963465557236525 6.958264732849959 6.953320617782209 6.948638980297709 6.944224839573744 6.9400825578988545 6.936215921596251 6.932628211756838 6.929322265815336 6.926300530933509 6.923565110075277 6.921117801573914 6.918960132905853 6.917093389301216 6.915518637739604 6.914236746801969 6.913248402775493 6.912554122336927 6.912154262056628 6.912154262056628
          7.139038536303033 7.139038536303033 7.138004499619672 7.136223850441247 7.133720928155378 7.130529121240793 7.126689646538034 7.122250130035704 7.117263084750828 7.111784378201906 7.105871769374796 7.099583577195448 7.092977522629625 7.086109767274744 7.079034154547763 7.071801646331214 7.064459938525124 7.057053233146783 7.049622141882784 7.042203695644601 7.034831436016491 7.027535566890032 7.020343147545075 7.0132783115788655 7.006362499137931 6.99961469270362 6.993051649132612 6.986688122724483 6.980537075785111 6.974609874504061 6.968916469008168 6.963465557236525 6.958264732849959 6.953320617782209 6.948638980297709 6.944224839573744 6.9400825578988545 6.936215921596251 6.932628211756838 6.929322265815336 6.926300530933509 6.923565110075277 6.921117801573914 6.918960132905853 6.917093389301216 6.915518637739604 6.914236746801969 6.913248402775493 6.912554122336927 6.912154262056628 6.912154262056628
        </DataArray>
      </PointData>
      <CellData/>
    </Piece>
  </ImageData>
</VTKFile>
