<?xml version="1.0"?>
<VTKFile type="ImageData" version="0.1" byte_order="LittleEndian">
  <ImageData WholeExtent="0 50 0 25 0 0" Origin="0.0 0.0 0.0" Spacing="0.02 0.02 1.0">
    <Piece Extent="0 50 0 25 0 0">
      <PointData Scalars="Density">
        <DataArray type="Float32" Name="Density" format="ascii">
          10.0 7.6672435991295735 6.081446312344871 5.046001631194963 4.352273413955423 3.8679232792729143 3.515209965710098 3.248255802290359 3.0392128107479035 2.870581449484213 2.7309752968307524 2.6127397508949035 2.51057424115052 2.4207097817154106 2.340402568878765 2.2676128222668925 2.2007954017933833 2.138759759034772 2.080574019060003 2.025497824449523 1.9729343338320415 1.9223952262503439 1.8734746889711273 1.8258297024457304 1.779164793075553 1.7332199848157344 1.6877610541205847 1.6425714467496708 1.5974453921822258 1.5521818798729878 1.506579260924765 1.4604303241292462 1.4135177804336383 1.3656101895069148 1.3164584948066524 1.2657935252221517 1.2133251097193156 1.1587438926027605 1.1017276147882722 1.0419546644188102 0.9791292763935707 0.9130251201572346 0.8435574631994152 0.7708989108738845 0.6956597938747201 0.619159921221897 0.5438167802059336 0.47364443482514257 0.41473747980351233 0.37527380762804113 0.37527380762804113
          10.0 7.6672435991295735 6.081446312344871 5.046001631194963 4.352273413955423 3.8679232792729143 3.515209965710098 3.248255802290359 3.0392128107479035 2.870581449484213 2.7309752968307524 2.6127397508949035 2.51057424115052 2.4207097817154106 2.340402568878765 2.2676128222668925 2.2007954017933833 2.138759759034772 2.080574019060003 2.025497824449523 1.9729343338320415 1.9223952262503439 1.8734746889711273 1.8258297024457304 1.779164793075553 1.7332199848157344 1.6877610541205847 1.6425714467496708 1.5974453921822258 1.5521818798729878 1.506579260924765 1.4604303241292462 1.4135177804336383 1.3656101895069148 1.3164584948066524 1.2657935252221517 1.2133251097193156 1.1587438926027605 1.1017276147882722 1.0419546644188102 0.9791292763935707 0.9130251201572346 0.8435574631994152 0.7708989108738845 0.6956597938747201 0.619159921221897 0.5438167802059336 0.47364443482514257 0.41473747980351233 0.37527380762804113 0.37527380762804113
          10.0 7.1048341835405955 5.654193107926704 4.77632447753479 4.185904912000125 3.7631724546496583 3.447033029214974 3.2023024269351574 3.0072101741221813 2.8476405773423648 2.714115501920564 2.600084244331758 2.5009041868664132 2.4132106855018054 2.3345158810109825 2.262946571155023 2.1970688663498272 2.1357683144201856 2.0781662595118062 2.0235603478354447 1.9713814219205406 1.921161723329542 1.8725110138884318 1.825098311956799 1.7786376509691466 1.7328767401785858 1.6875877271504398 1.64255948155204 1.5975909746835342 1.5524854420898235 1.5070451038735633 1.4610662918266848 1.4143349058671204 1.3666222071165954 1.3176810671780756 1.267242954921635 1.2150161859279585 1.1606863346561767 1.1039202896324802 1.0443763299348638 0.9817239866732044 0.9156795814789844 0.8460665906656335 0.7729149553577699 0.6966210373137637 0.6182013513138207 0.5396893197125923 0.4647399543246873 0.39948369899474057 0.3534226198726117 0.3534226198726117
          5.61178594382077 5.61178594382077 4.939649023508678 4.384589889051682 3.9519685045634043 3.615084313716494 3.349038324215012 3.1350595193320974 2.9596312211243325 2.8130819059585406 2.6884465696101283 2.580652362616651 2.4859555560863242 2.4015550820339704 2.3253263647365157 2.25563643517608 2.191214062477969 2.131057371335984 2.0743672375185076 2.020498597644111 1.9689243451430556 1.919208164105021 1.8709837734617834 1.8239388083388763 1.7778020781706705 1.732333293321081 1.687314596482127 1.642543407096028 1.5978262100685976 1.5529730104720934 1.5077922457114854 1.4620860052753128 1.415645464433584 1.3682465015205514 1.3196455506394602 1.2695758593755349 1.217744499054995 1.1638307508637493 1.1074869229063378 1.0483433315554767 0.9860202470592501 0.9201512845156936 0.8504253938577966 0.7766589551107744 0.6989169748853324 0.6177166168167789 0.5343771754815453 0.45165525797625694 0.374986032949351 0.3150017343037901 0.3150017343037901
          4.639878363315323 4.639878363315323 4.328940205047013 3.999868499115041 3.7028489549379913 3.4486289702303665 3.2344549892790546 3.05402865458573 2.900936814766876 2.769658387312563 2.655721532168791 2.555591642769905 2.466498328455894 2.3862712377374113 2.313203769737977 2.2459458766331073 2.1834217051752467 2.124766887665485 2.0692808472750333 2.016390392209025 1.9656217402133946 1.9165788269993005 1.8689263010700463 1.8223760176956425 1.7766761467068257 1.7316022293932967 1.686949680633632 1.6425273498201594 1.5981518403715609 1.5536423517779931 1.508815857230966 1.4634824697392554 1.4174408855482494 1.3704738313552252 1.3223434883179839 1.2727869310462865 1.2215117184111062 1.1681919281175666 1.1124651751404115 1.053931553894471 0.9921560890730036 0.9266773188425099 0.8570262991594115 0.7827629797074239 0.7035412335307849 0.6192215838517322 0.53006883268874 0.4371340236487557 0.3431971423743094 0.25601146042894923 0.25601146042894923
          4.027816668245393 4.027816668245393 3.8701006105685987 3.672189491273744 3.4710866666233917 3.283610219332119 3.1153809270920236 2.966752534788679 2.835941909019755 2.7205164144822054 2.6180429316371825 2.5263370816002393 2.443531467523247 2.368067454692242 2.2986588315290932 2.2342488161998526 2.173969263973701 2.117105158106884 2.0630649346611283 2.011356172303973 1.961565847117639 1.9133443191628425 1.8663922998987592 1.8204501652166742 1.7752890927699547 1.7307036014400052 1.6865051519838088 1.6425165320807038 1.598566798493879 1.554486586523371 1.5101036248158977 1.4652383140912582 1.419699243393231 1.3732785289519702 1.3257468707262974 1.276848232884446 1.2262940709927328 1.1737570574335985 1.1188643098542883 1.0611902273659866 1.0002492244974464 0.9354889852813286 0.866285412214303 0.7919411931247708 0.7116902199299223 0.6247066230928938 0.5300955311324532 0.42674351614687756 0.31248164634122627 0.18017237635836458 0.0
          3.6200470916518386 3.6200470916518386 3.5312687751329905 3.4070327146913835 3.269119296623484 3.131142532890308 3.000183733376434 2.8791936743078193 2.768825270132505 2.66858279697229 2.577474627447529 2.4943590913225338 2.418115089903983 2.347717529781315 2.2822632476069895 2.2209724975360374 2.1631793647355755 2.108318010596898 2.0559081672853177 2.0055414513671206 1.9568691101203488 1.909591336571614 1.8634480647766107 1.8182110633258342 1.7736771170136474 1.7296620892855357 1.685995673292648 1.6425166578294874 1.5990685514770966 1.5554954216570018 1.5116378138482722 1.4673286191073358 1.422388754298202 1.3766225076031633 1.3298123795221626 1.281713212837642 1.2320453480405626 1.1804864549117797 1.1266615646916887 1.070130646650588 1.010372825868613 0.9467660271987952 0.8785604942364332 0.804844390596962 0.7244997519533051 0.6361474913213228 0.5380798464349895 0.4281732876452703 0.3037670778457016 0.16163964985695078 0.0
          3.332092050945003 3.332092050945003 3.277339533033095 3.195339714276745 3.0983283165811115 2.995700115975325 2.8935548219475358 2.795348980982037 2.7027359522980543 2.616256415716318 2.535819218557324 2.461007499906981 2.391262020454138 2.3259852210613774 2.2645966890575764 2.2065599478257756 2.151392901140611 2.09866933123039 2.048015780348995 1.9991062874669423 1.95165634803453 1.9054168194560084 1.8601681233862264 1.8157148858744656 1.7718810403071854 1.7285053559250656 1.685437322653615 1.6425333070190202 1.5996528855973597 1.5566552565359864 1.5133956226272578 1.4697214282890547 1.4254683145548257 1.3804556268410224 1.334481264078673 1.2873155859421843 1.2386939836511455 1.1883075478307092 1.1357910015618269 1.0807066598462114 1.022522562485844 0.9605820330316022 0.8940607186818672 0.8219058949126733 0.7427526035884825 0.6548159652959911 0.5557807282151608 0.44278069566542044 0.3127607130666885 0.16397442763465403 0.0
          3.1190995797928336 3.1190995797928336 3.082745004515406 3.0259304154209237 2.955599543530754 2.8779142740705588 2.7975151101457483 2.717512930751459 2.6397836614356613 2.5653174040866062 2.4945177018359828 2.4274247566697955 2.363869156412549 2.303572107028746 2.2462079132951445 2.1914411873630657 2.1389477473529634 2.088425293398028 2.039597851141844 1.9922165316843738 1.946058201899804 1.9009230406094049 1.8566315620212557 1.8130214396845652 1.7699443092843865 1.727262632393184 1.6848466434429783 1.6425713642510975 1.600313645002678 1.55794917128947 1.51534935894371 1.4723780379899631 1.4288877998947962 1.3847158431729092 1.3396790938199536 1.293568287562724 1.246140562524288 1.1971098946649097 1.1461343674249485 1.0927987253444529 1.0365897968790454 0.9768609941710644 0.9127799382207602 0.8432500403632224 0.7667927476676609 0.6813745265371589 0.5841727634833632 0.4713396738660854 0.3380802716158159 0.18017867423672718 0.0
          2.955949388600376 2.955949388600376 2.9303488729488665 2.889221590304707 2.8366333204902023 2.7765893887649313 2.712450487553636 2.646745135949217 2.5812170354025885 2.5169711684188414 2.454637484221289 2.394514790883697 2.336683306059747 2.2810866954629594 2.2275889968211575 2.1760125864243003 2.1261625725738456 2.077841814461063 2.0308596388557563 1.985036414507224 1.9402054607265393 1.896213277553179 1.8529187447950397 1.810191705037997 1.7679111890200316 1.7259634365681025 1.6842397954847306 1.6426345323286602 1.6010425545094653 1.5593570164018717 1.5174667585556276 1.4752535043898551 1.432588708713762 1.3893299117064724 1.345316393202745 1.300363834058972 1.2542575562611584 1.2067437022500265 1.1575173778514871 1.1062062376385133 1.0523470849136687 0.9953515078461772 0.9344538256106995 0.8686295397807703 0.7964626595711899 0.7159205155546465 0.6239549368857563 0.515778527275262 0.38362448168549956 0.21544894467913586 0.0
          2.8276593528972658 2.8276593528972658 2.808753857796165 2.7778110071261217 2.7373034383762134 2.6898603267367625 2.6378749168743307 2.5833097876687576 2.527651912986169 2.4719539846208898 2.4169122021707494 2.362950128812062 2.310293613805125 2.25903143807377 2.2091614328914106 2.1606240234274776 2.113325771439328 2.0671553690523643 2.0219941325357076 1.9777225908324647 1.9342243560755117 1.891388133037065 1.8491084714978046 1.807285678342741 1.7658251706236663 1.724636453808382 1.683631840205312 1.642724972710211 1.6018291821460904 1.5608556776001759 1.5197115442928486 1.4782974990812374 1.4365053260768943 1.3942148797502771 1.3512904945498998 1.3075765700671225 1.2628919961012581 1.2170229215614714 1.169713119505306 1.1206507951552451 1.0694500074688373 1.0156236930757532 0.9585430813797771 0.8973738356491981 0.8309692315827251 0.7576751407003778 0.6749271139532761 0.5782718074109132 0.45851251594923703 0.2917988212792492 0.0
          2.7247771684677797 2.7247771684677797 2.71025446042699 2.6861713439559667 2.6540901322815613 2.6157686728897804 2.5729103455721125 2.5270084732222733 2.479278386457832 2.4306513731976644 2.3818037061157757 2.333200464135128 2.285141499012184 2.2378029630652945 2.191271792520035 2.1455727973483394 2.1006890988700517 2.056577054125513 2.013176838590492 1.9704197262612522 1.928232919073122 1.8865425909259088 1.8452756484667074 1.8043605778284855 1.7637276425189903 1.7233086182807755 1.683036190940097 1.6428430982717264 1.6026610626261553 1.5624195340691214 1.5220442411852355 1.4814555259504036 1.4405664177345647 1.3992803769383328 1.3574886078805983 1.315066799316166 1.2718710938800248 1.227733007051965 1.1824529006200108 1.1357914483251244 1.0874582870257037 1.0370966870204108 0.9842625474559303 0.9283952912853248 0.8687775101954521 0.8044812424356099 0.7343115854523186 0.6568358291258439 0.5710016822343481 0.4800154361005516 0.4800154361005516
          2.6410530551975677 2.6410530551975677 2.6295168976743026 2.610202722727699 2.584133837918428 2.552511650311973 2.5165584752559615 2.477404155409211 2.4360217778527815 2.3932040113286552 2.349567013209083 2.305569796634377 2.2615400564423123 2.217700733411779 2.174194207730727 2.1311027870826784 2.088465219528335 2.0462895207165466 2.0045626438695514 1.9632575763062032 1.9223384079885193 1.881763839809694 1.8414895119315668 1.8014694502083126 1.7616568576794187 1.7220044196925803 1.6824642445746743 1.6429875251314847 1.6035239776231203 1.5640210923335225 1.5244232117641876 1.4846704374403465 1.4446973532129554 1.4044315409915749 1.3637918537434965 1.3226864008681491 1.2810101948640957 1.2386424110854506 1.1954432369979193 1.1512503617604322 1.1058753436123026 1.059100533779098 1.0106782689501261 0.9603365097304082 0.9078011959563661 0.85286129413323 0.7955444526574071 0.7365845386152688 0.67865588352292 0.6294732668901049 0.6294732668901049
          2.57219241866456 2.57219241866456 2.5627579490415173 2.5468488836455396 2.525158061850161 2.498525860424649 2.467840852315297 2.433960181749673 2.397656780940383 2.3595920325271162 2.320308190855067 2.2802338922896594 2.239696943216603 2.1989401024145327 2.15813708888183 2.117407255191538 2.0768282115556063 2.0364462162436974 1.9962844453693525 1.9563493968134966 1.9166357297159693 1.8771298347562702 1.837812398500077 1.7986601836084004 1.7596472046100944 1.7207454406086111 1.6819251934635986 1.6431551729567402 1.6044023688351698 1.565631752806484 1.5268058409580694 1.487884138345346 1.4488224827171632 1.4095723042942618 1.3700798251174522 1.3302852386709985 1.2901219457996076 1.2495159905565263 1.2083859662990952 1.1666438992028305 1.1241980628955837 1.0809595319936243 1.0368559455546895 0.9918592496782674 0.9460408108635091 0.8996805345756975 0.853481982547651 0.80898742186395 0.7693237810562241 0.7402809542620623 0.7402809542620623
          2.5151490503548555 2.5151490503548555 2.5072322718963327 2.4938089413206357 2.4753626716584414 2.452495208186975 2.4258627724865103 2.3961208323696233 2.3638833109026796 2.32969732273468 2.294031383304462 2.257273684841617 2.2197369367901105 2.1816668312192333 2.143251973388029 2.10463385932623 2.0659160765753284 2.027172329413498 1.988453166764017 1.9497914545058554 1.9112067185504769 1.872708518966396 1.8342990192454796 1.7959749025073726 1.7577287669344381 1.7195501113355065 1.6814260014070006 1.643341489493574 1.6052798461279252 1.567222650653457 1.5291497810452903 1.4910393400873199 1.4528675572546423 1.4146087147559543 1.3762351653914926 1.337717544736256 1.2990253402458092 1.2601280816846185 1.220997589242146 1.181612007156085 1.1419628472882994 1.1020671167441494 1.061988054905434 1.0218704481214316 0.9820004284056787 0.942905334340808 0.9055149203476903 0.8714016953463902 0.8430733955850356 0.824120910163407 0.824120910163407
          2.4677046758707633 2.4677046758707633 2.4609065454248977 2.449330599375574 2.433324142685324 2.4133282030208294 2.389835995643266 2.363354600295835 2.3343742850940346 2.30334715748677 2.270674740601201 2.2367028954621127 2.2017220999896505 2.1659711873630103 2.1296429876080154 2.0928907286254588 2.0558344345616204 2.018566866496959 1.98115877448262 1.9436633804386656 1.9061201042629186 1.8685575968641772 1.8309961674246718 1.7934496984721693 1.755927138739108 1.718433655307595 1.6809715164006676 1.6435407663825383 1.6061397463205087 1.5687655076927927 1.5314141642509802 1.4940812285731955 1.456761986820227 1.4194519797661864 1.3821476837425628 1.3448475271870086 1.3075534457306697 1.2702732849232494 1.2330245262039106 1.1958400712953612 1.1587772207328295 1.1219315877411424 1.085458566150505 1.049606131376836 1.0147639622728102 0.9815341339603496 0.9508249742693632 0.9239548132161118 0.902712156222748 0.8892376386131475 0.8892376386131475
          2.4282082269294385 2.4282082269294385 2.4222476613290933 2.412063815230667 2.3979129641756938 2.3801259791584752 2.359080668955512 2.3351749815391933 2.3088041646173325 2.2803434675564325 2.2501366543438173 2.218489713369068 2.1856687054867296 2.1519005862215073 2.11737594193411 2.0822527825111172 2.046660758462598 2.010705375037281 1.9744719414559357 1.9380291162466814 1.9014319945039508 1.8647247373247233 1.8279427756483217 1.7911146371792972 1.7542634515034412 1.7174081889988377 1.6805646866032848 1.6437465099497375 1.6069656982504426 1.570233436686558 1.533560701919293 1.4969589307594324 1.460440771419253 1.424020993118515 1.3877176560396178 1.3515536839907796 1.3155590427843284 1.279773816857742 1.2442526064137112 1.209070850746041 1.1743339321360442 1.1401902269857775 1.1068496010472697 1.0746090330367304 1.043886669331728 1.015263691616798 0.9895280114032325 0.9677019904157422 0.9510156023893467 0.940761966473358 0.940761966473358
          2.395408325244629 2.395408325244629 2.3900818360916034 2.38095720367271 2.3682286402213495 2.3521503533777564 2.3330177235335126 2.31114832541123 2.2868649161625916 2.260481681385306 2.2322942236305536 2.2025731597366383 2.1715608141655416 2.1394703298374305 2.1064865063962044 2.0727677555770803 2.038448683639049 2.003642937480822 1.9684460648047533 1.932938231222923 1.897186707117081 1.8612480866705934 1.8251702346073087 1.7889939768559313 1.752754563254165 1.7164829365074867 1.6802068442521538 1.6439518320072906 1.6077421553859734 1.5716016512582842 1.5355546105998061 1.4996267015360103 1.4638460008116916 1.4282442071160775 1.3928581323995943 1.3577316001391064 1.3229179256366201 1.2884832163122222 1.2545108121652686 1.221107287081419 1.188410539483509 1.15660058193676 1.1259136112117636 1.0966596271440456 1.0692429338602083 1.0441827352699964 1.0221269707968021 1.0038460306238577 0.9901853371709168 0.9819534416277393 0.9819534416277393
          2.36834234142987 2.36834234142987 2.363498817711455 2.3551841945296044 2.343549677760886 2.3287954754801805 2.311157683934031 2.290894620913358 2.2682740540294244 2.243562317680712 2.2170158227094263 2.1888750459331856 2.15936079388525 2.128672370430337 2.0969872184684064 2.0644616189936587 2.0312320852536683 1.9974171615218537 1.9631194090229949 1.9284274268172776 1.8934178090624147 1.8581569814173955 1.822702889606067 1.7871065342901047 1.7514133605418638 1.7156645193338962 1.6798980242603196 1.6441498305584648 1.608454866531044 1.5728480506193252 1.5373653314853395 1.5020447943461153 1.4669278853378256 1.432060817845612 1.3974962415871293 1.363295277847187 1.329530053358361 1.2962869005622237 1.263670430399991 1.231808716797723 1.200859840041523 1.1710199795481149 1.1425330514165 1.1157014279132136 1.0908963688225293 1.0685652192057826 1.0492300719907333 1.0334698339069492 1.021876085064173 1.0149765251398317 1.0149765251398317
          2.3462609892970105 2.3462609892970105 2.3417854294915745 2.3340898915194854 2.323295456016811 2.3095640085415132 2.2930888613088154 2.2740847029524343 2.252777870946522 2.2293976940405944 2.204169356076113 2.1773084566707106 2.1490172289374425 2.1194822330543133 2.088873271560359 2.057343252476639 2.0250287420515467 1.9920509843758443 1.958517208395955 1.9245220861146117 1.890149244561505 1.855472766495349 1.8205586404331502 1.7854661400817105 1.7502491275890675 1.7149572853804722 1.679637288789599 1.6443339372155803 1.6090912659685932 1.5739536650292494 1.5389670352661895 1.5041800177947562 1.4696453386282757 1.4354213190102223 1.401573612097919 1.3681772389075575 1.3353190097553451 1.3031004294159931 1.2716411895442428 1.2410833401419261 1.2115961841482012 1.1833818239018083 1.1566810564271763 1.1317788998716891 1.1090083654827825 1.0887501403564621 1.0714247406027106 1.057472907031768 1.047320603431581 1.0413285699411334 1.0413285699411334
          2.3285759257425567 2.3285759257425567 2.324378631745578 2.317152430005165 2.30699722321746 2.2940476763216573 2.2784663027205285 2.260435875918289 2.240151861862298 2.217815432990006 2.193627445829855 2.1677835824019502 2.1404707008458006 2.1118643268812103 2.0821271468379092 2.051408329291515 2.019843496586924 1.9875551801187885 1.954653615961624 1.9212377641562843 1.887396461589916 1.8532096426009665 1.8187495821173316 1.7840821330552306 1.7492679431286233 1.7143636466572147 1.6794230350205768 1.6444982156901666 1.6096407748320936 1.574902962791215 1.5403389257391868 1.5060060107015387 1.4719661752609325 1.438287537480306 1.4050461057259094 1.372327731320014 1.340230327677197 1.30886639469098 1.2783658712277135 1.2488793027086822 1.2205812410476262 1.1936736708387126 1.1683890537464325 1.1449922784621875 1.1237803898319694 1.1050784940969618 1.0892298556655273 1.0765782541354947 1.0674416977172871 1.0620791450260019 1.0620791450260019
          2.314822654270107 2.314822654270107 2.3108318514357404 2.3039545969981035 2.2942760151420387 2.2819116222219358 2.267002037346232 2.249707057529442 2.230199597330751 2.2086599204891337 2.1852704816626134 2.1602115759368115 2.133657882633413 2.105775900410734 2.0767222073836122 2.0466424420569567 2.015670884062216 1.983930512542813 1.9515334291929531 1.91858154790491 1.8851674703349295 1.8513754841626202 1.8172826370126574 1.7829598532383173 1.748473072812586 1.7138844015069252 1.6792532695921558 1.6446376027683947 1.610095014222488 1.5756840308838105 1.5414653702926429 1.5075032870962053 1.4738670099847977 1.4406322905999196 1.4078830849935264 1.3757133845158758 1.344229204757725 1.3135507255143555 1.2838145473551354 1.2551759851022297 1.2278112472077498 1.2019192432966626 1.177722612074432 1.1554673682427954 1.135420349929376 1.1178634667179175 1.1030837241727376 1.091358327725431 1.0829350735495638 1.0780098301689713 1.0780098301689713
          2.3046338660617436 2.3046338660617436 2.3007905211070114 2.2941628083297902 2.284825807932155 2.2728819439135552 2.258456745510315 2.2416940202413116 2.2227508132152876 2.2017924890571257 2.1789882045651687 2.154506958211356 2.128514321111696 2.101169883141788 2.0726253927788876 2.0430235313878446 2.0124972406676993 1.9811695129747986 1.949153554867635 1.9165532412617847 1.8834637883359144 1.8499725857258014 1.816160141139709 1.7821011024112376 1.7478653326691929 1.7135190235311892 1.6791258389861754 1.6447480889889925 1.6104479368503366 1.576288648353522 1.5423358931891569 1.5086591106893323 1.4753329517302218 1.442438806608514 1.4100664239440104 1.378315617089701 1.347298040510565 1.3171389968818565 1.2879792033599422 1.259976399179247 1.233306613041206 1.208164825665774 1.184764662402468 1.1633366436607515 1.1441244333302707 1.1273785067667188 1.1133467870038967 1.1022621644374224 1.0943274921080681 1.0896996012674114 1.0896996012674114
          2.2977200717278237 2.2977200717278237 2.2939741440466466 2.28751143762303 2.278400641927716 2.266735814148924 2.2526327831370345 2.2362250052560615 2.217659169197526 2.197090828291625 2.1746802941019365 2.150588965869307 2.1249762074270073 2.097996824806729 2.0697991491314327 2.0405236929285593 2.010302323831733 1.979257886425163 1.9475041986083808 1.9151463509911812 1.882281244291622 1.8489983086736914 1.8153803590134703 1.7815045502162499 1.7474434062612738 1.7132659052338315 1.679038610013467 1.6448268404350292 1.6106958875904251 1.5767122744537798 1.5429450690980908 1.5094672572342906 1.4763571793031742 1.4437000333504082 1.4115894376332196 1.3801290352781062 1.3494341059679356 1.3196331249746198 1.290869176198249 1.263301081909262 1.237104057462912 1.2124696367493706 1.1896045505799018 1.168728190017507 1.1500682745109982 1.1338544067030039 1.1203093756903626 1.109638405738399 1.1020170404644352 1.097578930034277 1.097578930034277
          2.293855453105089 2.293855453105089 2.290163086369107 2.2837911027264024 2.2748047809115235 2.263293686233758 2.2493684151252507 2.2331568140396647 2.214799929730057 2.194447939746834 2.172256278239118 2.148382124212881 2.12298136611955 2.096206105136647 2.068202714741631 2.039110438926778 2.0090604864821917 1.978175563595363 1.9465697801256299 1.914348864473551 1.8816106261123942 1.848445611908547 1.8149379109597001 1.7811660717851563 1.7472041045782882 1.7131225493959161 1.6789895983191725 1.644872265602125 1.6108376045141686 1.5769539728689685 1.54329235095739 1.5099277155096593 1.4769404710080913 1.4444179345816401 1.4124558620544834 1.3811599894980682 1.3506475456900722 1.3210486650311033 1.2925075968014723 1.265183565061189 1.2392510855998415 1.214899496676098 1.192331417940621 1.1717598321177678 1.1534035087513197 1.1374805857046306 1.1242003179723805 1.1137533061452929 1.1063009055722193 1.1019649105315361 1.1019649105315361
          2.293855453105089 2.293855453105089 2.290163086369107 2.2837911027264024 2.2748047809115235 2.263293686233758 2.2493684151252507 2.2331568140396647 2.214799929730057 2.194447939746834 2.172256278239118 2.148382124212881 2.12298136611955 2.096206105136647 2.068202714741631 2.039110438926778 2.0090604864821917 1.978175563595363 1.9465697801256299 1.914348864473551 1.8816106261123942 1.848445611908547 1.8149379109597001 1.7811660717851563 1.7472041045782882 1.7131225493959161 1.6789895983191725 1.644872265602125 1.6108376045141686 1.5769539728689685 1.54329235095739 1.5099277155096593 1.4769404710080913 1.4444179345816401 1.4124558620544834 1.3811599894980682 1.3506475456900722 1.3210486650311033 1.2925075968014723 1.265183565061189 1.2392510855998415 1.214899496676098 1.192331417940621 1.1717598321177678 1.1534035087513197 1.1374805857046306 1.1242003179723805 1.1137533061452929 1.1063009055722193 1.1019649105315361 1.1019649105315361
        </DataArray>
      </PointData>
      <CellData/>
    </Piece>
  </ImageData>
</VTKFile>
