<?xml version="1.0"?>
<VTKFile type="ImageData" version="0.1" byte_order="LittleEndian">
  <ImageData WholeExtent="0 50 0 25 0 0" Origin="0.0 0.0 0.0" Spacing="0.02 0.02 1.0">
    <Piece Extent="0 50 0 25 0 0">
      <PointData Scalars="Density">
        <DataArray type="Float32" Name="Density" format="ascii">
          10.0 7.694102586067449 6.126520859821889 5.1029008440323835 4.417005368647701 3.938018720011317 3.5890943326286293 3.324882561303281 3.1178559178460246 2.950716201300388 2.812207921539906 2.694764402419274 2.593145845063683 2.5036263386123223 2.423493274959715 2.35072987219388 2.2838081842470253 2.221550643569535 2.163035222528197 2.1075290216311604 2.0544407868708383 2.003286277544809 1.9536625076414909 1.9052282044897686 1.8576886753640354 1.8107838265990472 1.7642784489218508 1.7179541338699895 1.6716023615775066 1.6250184276965958 1.5779959763207871 1.5303219917445756 1.4817721886746145 1.4321068433360775 1.381067246154543 1.3283731573809807 1.2737219497653136 1.2167905862020898 1.1572422932359685 1.0947408833932888 1.02897733784257 0.9597157437615116 0.8868693083704865 0.8106222344480931 0.7316196260776319 0.6512535269704 0.5720714573974082 0.49830135146941895 0.4363606050581077 0.3948585195028826 0.3948585195028826
          10.0 7.694102586067449 6.126520859821889 5.1029008440323835 4.417005368647701 3.938018720011317 3.5890943326286293 3.324882561303281 3.1178559178460246 2.950716201300388 2.812207921539906 2.694764402419274 2.593145845063683 2.5036263386123223 2.423493274959715 2.35072987219388 2.2838081842470253 2.221550643569535 2.163035222528197 2.1075290216311604 2.0544407868708383 2.003286277544809 1.9536625076414909 1.9052282044897686 1.8576886753640354 1.8107838265990472 1.7642784489218508 1.7179541338699895 1.6716023615775066 1.6250184276965958 1.5779959763207871 1.5303219917445756 1.4817721886746145 1.4321068433360775 1.381067246154543 1.3283731573809807 1.2737219497653136 1.2167905862020898 1.1572422932359685 1.0947408833932888 1.02897733784257 0.9597157437615116 0.8868693083704865 0.8106222344480931 0.7316196260776319 0.6512535269704 0.5720714573974082 0.49830135146941895 0.4363606050581077 0.3948585195028826 0.3948585195028826
          10.0 7.138188450302969 5.704206951918361 4.836345562004028 4.252566259202072 3.8344854954049348 3.52171216409257 3.279466823929827 3.086229402122167 2.9280465042283135 2.7955489016039725 2.6822610718077518 2.5835935723123993 2.4962201676155273 2.41768124379824 2.3461246818863977 2.2801325134903743 2.2186024041973655 2.160664950612022 2.105624842235372 2.0529182184831183 2.0020811985090305 1.9527262320566339 1.9045239934255187 1.8571892430690735 1.8104695485161324 1.7641360721985466 1.717975851253496 1.6717851476273826 1.625363558754563 1.5785086660547298 1.531011073388488 1.4826497622902686 1.433187778254636 1.382368379124415 1.3299119459016968 1.2755142122539307 1.2188467631040198 1.1595613630449855 1.0973006201741304 1.0317189487961753 0.962520033969515 0.8895204273950074 0.8127541344912085 0.7326410251754862 0.650253923122476 0.5677361725746656 0.4889379364641589 0.4203145312777732 0.3718690374466555 0.3718690374466555
          5.662376070056397 5.662376070056397 4.997922733718223 4.44914697909803 4.021344246653689 3.688119918816461 3.424860788571424 3.213011375941963 3.039210210588282 2.893896792715458 2.7701860187082747 2.663063159699359 2.568827285508213 2.4847092343644235 2.4086084902924965 2.338910407659121 2.2743578180356354 2.2139596893104896 2.1569252631673854 2.102615896918474 2.0505093421973215 2.0001728534065877 1.9512426265812863 1.9034078149323057 1.8563978740862146 1.809972338025632 1.7639123683592435 1.7180135894930748 1.6720798439064053 1.625917591289464 1.579330744673398 1.5321157954477176 1.484057136184961 1.4349225551957903 1.3844589620835657 1.3323885266488844 1.2784056001839736 1.222175078037352 1.1633333164992175 1.1014934307801034 1.0362579233649696 0.967243361275701 0.8941246332117222 0.816710897568009 0.7350732124558723 0.6497588163196487 0.5621595097561392 0.47518012593053016 0.3945446467726716 0.3314460663522397 0.3314460663522397
          4.70170268388583 4.70170268388583 4.394282059832758 4.0688856958870945 3.7751187793490053 3.5236032427923445 3.3116161088822813 3.1329307716559684 2.9812073681722295 2.8509879590610367 2.7378518344632425 2.638304754953637 2.5496078967465223 2.469615541695984 2.3966403371412563 2.3293473126083817 2.266672449037251 2.207760669599792 2.1519186695030807 2.0985789013597325 2.0472718897402666 1.9976047523586409 1.949244347860657 1.9019038756238158 1.855332051309587 1.8093041998496178 1.7636147663990385 1.7180708617397884 1.6724865437445204 1.6266775998729202 1.5804566442715409 1.5336283826895296 1.485984934505566 1.437301139529493 1.387329825231921 1.3357970779665655 1.2823976650726514 1.2267909176637841 1.1685976449021092 1.1073990712683548 1.0427394673557455 0.9741352382473671 0.9010949864190649 0.823157868055301 0.7399621209049788 0.6513638096829968 0.5576449437855007 0.45991559333901166 0.3611060483023781 0.2693807988304367 0.2693807988304367
          4.09672922479896 4.09672922479896 3.9407625030430053 3.7450121827729435 3.54605364284413 3.3605098255088355 3.1939356821899514 3.046680067808992 2.916979765038152 2.802429665412926 2.7006242625284704 2.6094039687564905 2.526922540989946 2.451638930822825 2.382281342306687 2.3178047130722494 2.257350370674871 2.2002109103926677 2.1458008376561244 2.093632510736192 2.043296592120964 1.9944461840807837 1.9467839052582334 1.9000512793425308 1.854019919370459 1.8084840890522926 1.763254302605061 1.71815168779359 1.673002885565483 1.6276352964295278 1.581872511009629 1.5355297821739642 1.488409410740041 1.4402959278867082 1.39095096718381 1.340107730383272 1.2874649680990382 1.2326804265039681 1.1753637671187178 1.1150690719501446 1.0512872414641095 0.9834389432171681 0.9108693513463185 0.8328467065685757 0.7485670570310393 0.6571638943354784 0.5576986205376226 0.44900346003414326 0.32880118275104897 0.1895880862888977 0.0
          3.693693411832242 3.693693411832242 3.6058682977118375 3.4829416792353576 3.3464418739686232 3.209824971342524 3.080089778419034 2.9601523233176765 2.8506573887520914 2.7511144614990104 2.660542913825604 2.5778138499260237 2.5018187290057665 2.431543907298037 2.366096243396536 2.30470454857854 2.2467100905869546 2.191552976069477 2.1387577891341656 2.087920036907707 2.038694007860345 1.990782176558217 1.9439260664919746 1.8978983900651403 1.8524962569637473 1.8075352445945605 1.762844139092457 1.7182601733502194 1.6736246050210637 1.6287784902256102 1.5835585165681239 1.5377927611664404 1.4912962347011733 1.4438660594075317 1.3952761049007192 1.3452708666790958 1.2935583118862464 1.2398013264085537 1.1836072643950197 1.12451491120923 1.0619779110700558 0.9953433829816369 0.9238240959279099 0.8464623224855032 0.7620835591033637 0.6692387673670994 0.5661334777629146 0.45053647411019176 0.3196525711057069 0.1700986305970975 0.0
          3.4090906546630064 3.4090906546630064 3.3548980335840968 3.2737191837779753 3.1776480783998564 3.07597044223978 2.974714956639268 2.877297688219073 2.7853523894088474 2.699413037051378 2.6193891194797803 2.5448682127229714 2.4752971776822177 2.410085000419216 2.348657600814411 2.2904842951662494 2.2350881014678157 2.182047200426739 2.130991831463728 2.081599066148766 2.033586810565186 1.9867077501603796 1.9407435833150077 1.8954996820850616 1.8508002036876432 1.806483614649094 1.7623985576181955 1.7183999747398633 1.6743453928314667 1.6300912691938312 1.5854892891372219 1.5403824942293025 1.4946011007056552 1.4479578362827616 1.4002425747226692 1.3512159716317278 1.3006016876814932 1.2480766042710405 1.1932581572691672 1.1356874861840942 1.0748064497341643 1.0099256178172213 0.9401790899990554 0.8644606545612328 0.7813355796858513 0.6889273592800338 0.5848016156758968 0.4659447339412648 0.3291453971263826 0.172571923646219 0.0
          3.1985855565194266 3.1985855565194266 3.1625780040868574 3.1062928496020277 3.0365932790022754 2.959569575924053 2.87980817891848 2.8003835739449228 2.7231495843920683 2.649084477187864 2.578586770134013 2.511695864173515 2.448243984105463 2.387955240461035 2.3305073745080787 2.275568522000676 2.222817854222273 2.171956113155697 2.1227099843038926 2.074832826229664 2.0281033317656862 1.9823230844676005 1.937313584267843 1.8929130708715252 1.8489733201522023 1.805356493512693 1.7619320607608242 1.718573779221712 1.6751566862211935 1.6315540423783765 1.5876341446331312 1.5432569065379105 1.498270074756824 1.45250490946351 1.405771094561854 1.357850549363999 1.308489667589219 1.257389281850817 1.20419129286368 1.148460332423348 1.0896579191793498 1.0271051163851959 0.9599274281262413 0.8869722842564011 0.8066851253431153 0.7169273303295712 0.6147298751982417 0.49604496580176954 0.35582845542952096 0.18964737389198633 0.0
          3.037347108144534 3.037347108144534 3.011969062935369 2.9711894672731725 2.919026869458392 2.85943999201805 2.7957503366582452 2.730456839140561 2.6652826972502073 2.601319791616083 2.539190482705731 2.4791898374742836 2.421396872990898 2.365755637858329 2.3121314675274234 2.2603484998372685 2.210213772949028 2.1615320555664512 2.114114446064511 2.067782875107422 2.022371970712935 1.9777292612180053 1.9337143553213383 1.8901975087546867 1.8470578321025177 1.8041812901270458 1.7614585727257466 1.7187828694508025 1.676047544968731 1.6331436858473227 1.5899574648799046 1.5463672435867326 1.5022403021406645 1.4574290432341133 1.4117664545745954 1.3650605219950092 1.317087142921031 1.267580867599573 1.2162224416658658 1.1626215492813694 1.106292201613785 1.046616582971315 0.9827902742165642 0.9137364263617047 0.8379661115448189 0.7533412809420414 0.656654920357711 0.5428691540942318 0.4038096629105044 0.22679991736683885 0.0
          2.9105656822510264 2.9105656822510264 2.8918050493244736 2.861091804396121 2.8208698156712586 2.7737376250201855 2.722060538469968 2.667778162328093 2.612359999011971 2.5568463020847174 2.501924971219643 2.448014438454596 2.395337721012602 2.3439823596854987 2.293945996319553 2.245169519954116 2.197560326283896 2.151008114019131 2.1053952432121723 2.060603231617585 2.0165165622473262 1.973024648733873 1.9300225549871648 1.887410880514667 1.8450950886504438 1.802984458885566 1.7609907758601842 1.7190268180466615 1.6770046723472338 1.634833871808242 1.5924193283928922 1.5496590076460617 1.5064412634060287 1.4626417140181704 1.418119490772785 1.3727126156975704 1.3262321556914767 1.2784546311304392 1.2291118921647 1.1778772490534068 1.1243459308697765 1.0680067026408433 1.0081991545335642 0.9440464868807596 0.8743430606248715 0.7973490857433199 0.7103664049915284 0.6087081461643468 0.48269319147677925 0.30721136058810655 0.0
          2.808897773373921 2.808897773373921 2.7944690891883974 2.7705360025609966 2.738642621729168 2.7005262863927726 2.6578704719429753 2.6121510142745272 2.5645689722540475 2.5160446558795924 2.467246322869137 2.4186334947658428 2.3705023904569713 2.323026969865209 2.276293012871097 2.230324888685845 2.185105748529055 2.140592267477582 2.096725093430422 2.053436030033502 2.010652795428298 1.9683020140831022 1.92631093765388 1.8846082593237385 1.8431242831714707 1.8017906315444512 1.7605396141491243 1.719303337907276 1.6780126024859754 1.6365955993819656 1.5949764096393988 1.553073274133622 1.5107965883697363 1.4680465482263623 1.4247103407875377 1.380658731144963 1.335741836056798 1.289783790445568 1.2425758910244589 1.1938676252033131 1.1433547361221095 1.0906630958249426 1.0353266027116412 0.9767565487192724 0.914199138242363 0.8466789256978466 0.7729394311070972 0.6914737657811975 0.6011754364842326 0.5054213443321691 0.5054213443321691
          2.7261655113752594 2.7261655113752594 2.7146887226062693 2.695469242965539 2.6695184410201414 2.6380236938168813 2.60219302494002 2.563143046152973 2.5218354278114403 2.4790535172569412 2.435406205411003 2.391347072144782 2.3471999134461345 2.303184996420225 2.2594429693120492 2.2160551076218358 2.1730596297583675 2.1304643684727944 2.0882563203810562 2.0464086504904233 2.004885690746404 1.9636463946897276 1.922646623856303 1.8818405601729238 1.8411814683027472 1.8006219740702594 1.7601139788997395 1.7196082938740667 1.679054048577553 1.6383979074426251 1.5975831082205352 1.5565483220529421 1.515226321328925 1.4735424292972519 1.431412713978832 1.3887418788685353 1.3454207965237739 1.3013236342511652 1.2563045470607057 1.2101939914107613 1.162794909743256 1.1138795002493302 1.0631883740382317 1.010436497140277 0.9553367296803015 0.897668308025473 0.8374617717748439 0.7754911867415751 0.7145735872287893 0.6628327637668189 0.6628327637668189
          2.6581236927393728 2.6581236927393728 2.6487242045156925 2.6328703299629836 2.611246819232543 2.584684231123142 2.5540607495075203 2.5202234882839276 2.4839363266618033 2.4458528943605153 2.406509085256835 2.3663285067754765 2.3256351210163047 2.284668844057051 2.2436013667583734 2.2025506553739116 2.1615934255473315 2.120775407547672 2.0801195144651996 2.0396321651555107 1.9993080597943405 1.9591336997264062 1.9190899116784177 1.8791535953704976 1.8392988719157661 1.7994977724764305 1.7597205741596516 1.7199358633854485 1.6801103855661783 1.6402087232989884 1.6001928328312907 1.560021459999687 1.5196494522894828 1.4790269839624584 1.4380987184134426 1.396802950205756 1.3550708065517343 1.312825659289723 1.2699830318367142 1.226451534984917 1.1821358355149214 1.1369435607390372 1.0907997930763313 1.0436762810498834 0.9956494651275689 0.9470153591109995 0.8985160265625532 0.851776547058232 0.8100903647396975 0.7795545221944931 0.7795545221944931
          2.6017611240674574 2.6017611240674574 2.5938617233601153 2.580464761063602 2.5620482044419175 2.5392067721215894 2.5125890211987523 2.4828427631476884 2.450574751434188 2.4163257159086085 2.38055871299757 2.3436574248974216 2.305930945944949 2.2676221508470897 2.2289175100663097 2.1899569507718066 2.150842949149064 2.1116484600886674 2.072423563913296 2.0332008713960277 1.9939998119604345 1.9548299634540736 1.915693585636713 1.8765875073567382 1.837504498105243 1.7984342334947236 1.7593639441324673 1.7202788198364356 1.6811622268583801 1.6419957850532982 1.6027593450357915 1.5634309027802784 1.523986491844151 1.4844001032995682 1.4446437039195272 1.404687460043435 1.3645003379449652 1.3240513588014993 1.283311967475918 1.242260281202279 1.2008885071256248 1.15921571213605 1.1173096562993798 1.0753239729694875 1.0335611245833871 0.992577534238665 0.953353301862363 0.9175452215933496 0.887794670468097 0.8678832767649198 0.8678832767649198
          2.5548850151235465 2.5548850151235465 2.5480912980312436 2.5365203202678868 2.5205153375713465 2.5005122366820305 2.4769984860908245 2.4504752621077457 2.42142713340015 2.3903009642051574 2.3574936389015866 2.323347046574802 2.2881483594727814 2.2521337299499855 2.2154938678583918 2.1783803679471565 2.1409120340974837 2.103180750728041 2.0652566731509117 2.0271926573850685 1.989027941682351 1.950791142783724 1.9125026532409395 1.874176532349641 1.8358219796984154 1.7974444719938736 1.7590466338599686 1.720628903718723 1.682190047888547 1.643727570555126 1.605238065060792 1.5667175539819178 1.528161873145788 1.4895671703358278 1.4509306165635492 1.4122514722229902 1.3735327213614115 1.3347835991626726 1.2960235131028908 1.2572881315475508 1.2186388352482536 1.1801773646415943 1.1420684195862438 1.1045741896253691 1.068106065176553 1.0332990556340835 1.0011105886027671 0.972929714172434 0.9506404126371832 0.9364972390788643 0.9364972390788643
          2.515863255773304 2.515863255773304 2.50989740868622 2.49970242705577 2.48553160699964 2.4677119756466874 2.4466169578577786 2.4226398926250408 2.3961714629242583 2.3675826026447933 2.3372131469050226 2.3053656185149576 2.2723031042574195 2.2382500703455044 2.203395069210786 2.167894490199557 2.1318767294774785 2.0954463568018005 2.0586880203940514 2.0216699526052517 1.9844470229228126 1.9470633386765281 1.909554425417751 1.8719490352333268 1.8342706376510334 1.7965386483387502 1.758769448375869 1.7209772434950943 1.683174809784978 1.6453741710112553 1.607587253963315 1.5698265731863126 1.5321060065964953 1.4944417408987551 1.4568534935044386 1.4193661602784418 1.3820121024002872 1.344834379948691 1.3078913764700508 1.2712634518895707 1.2350625229677723 1.1994457992288627 1.1646352498092079 1.130944573802466 1.098815044588819 1.068859575783763 1.0419087040977 1.019039744211158 1.0015484884258958 0.9907970457507471 0.9907970457507471
          2.48345883101904 2.48345883101904 2.4781197326068516 2.468971732868955 2.4562067967619905 2.4400761943335776 2.4208718995944474 2.3989078359937657 2.3745030659323243 2.347968200523394 2.3195955083839097 2.289652591229188 2.258379119340041 2.225985956262024 2.1926559907097434 2.15854607249271 2.1237895681975942 2.088499177563768 2.052769763927711 2.0166810435798346 1.9803000479976363 1.9436833219688028 1.9068788533767513 1.8699277509020007 1.8328656977026325 1.795724215240151 1.758531774123461 1.7213147899113115 1.6840985425927757 1.6469080600559387 1.6097690092596824 1.572708645098425 1.5357568773552661 1.4989475322938004 1.4623199094699388 1.4259207690024762 1.3898069331861604 1.354048752586282 1.3187347733452353 1.2839780482543586 1.2499246476403458 1.2167650114538255 1.184748754244164 1.15420320481358 1.1255549779187708 1.0993516412589939 1.0762762598337012 1.0571407490158924 1.0428359111897414 1.034213571428741 1.034213571428741
          2.456720159253462 2.456720159253462 2.4518584552671125 2.4435111295204397 2.4318276500451885 2.417005928435681 2.3992793608502767 2.3789033233944745 2.356142552425834 2.331260391881639 2.304510405653902 2.276130441099276 2.2463389403608036 2.2153331334643673 2.1832886884249953 2.15036040653238 2.1166836048560542 2.0823758989676295 2.0475391710760915 2.01226157330016 1.9766194688157357 1.9406792545074518 1.9044990386911254 1.8681301684046043 1.8316186148002465 1.795006234270957 1.7583319287776944 1.7216327327958076 1.6849448574848698 1.648304726059044 1.6117500387469692 1.575320912026104 1.539061145902886 1.5030196859043565 1.46725236427279 1.4318240287288746 1.3968111978594222 1.3623054193269515 1.3284175475644013 1.2952831923807921 1.2630695983357727 1.2319841550033572 1.202284532727816 1.1742899559018916 1.148392170478695 1.1250630036359452 1.1048529328134264 1.0883721758041336 1.0762441843604884 1.0690250080954493 1.0690250080954493
          2.4349065564304953 2.4349065564304953 2.4304085805544684 2.4226732205989663 2.4118201777538975 2.3980094981444346 2.3814323060602023 2.3623008735912943 2.3408390096387617 2.317273506863304 2.29182709260894 2.2647130571879823 2.236131520128662 2.2062671553105453 2.1752881238539494 2.143345944111691 2.1105760436579097 2.0770987732285198 2.0430207053731126 2.0084360833616826 1.9734283242605044 1.9380715121266232 1.9024318426459876 1.866568999841412 1.8305374597129023 1.794387725976189 1.7581675105226116 1.7219228768051997 1.6856993688992226 1.649543153211956 1.6135022043596532 1.5776275721632957 1.5419747735636493 1.5066053619725768 1.4715887374474619 1.4370042740015339 1.402943854424849 1.3695149156338273 1.3368441131847486 1.3050817011996445 1.2744066737089252 1.2450325919557297 1.2172137781071928 1.191251119217532 1.1674960219937403 1.1463500595891265 1.1282566877564024 1.113680578907091 1.1030707424575612 1.0968073834507004 1.0968073834507004
          2.4174364406506674 2.4174364406506674 2.4132135340253797 2.405942124864469 2.3957209894729052 2.382683279477379 2.3669896908148385 2.3488209665636184 2.328370420741357 2.305837037474212 2.2814195228856313 2.2553115075823293 2.227697944622739 2.1987526353840323 2.168636745726943 2.137498141580684 2.1054713674091836 2.07267810349006 2.0392279604245425 2.0052194957294622 1.9707413637149642 1.9358735338004094 1.9006885328982717 1.8652526842671064 1.8296273285588154 1.793870023172075 1.7580357240741973 1.7221779605676886 1.6863500186051283 1.6506061526753373 1.6150028503926077 1.5796001780247366 1.544463239481363 1.5096637857580675 1.4752820161975086 1.4414086163644235 1.4081470781069476 1.37561634224108 1.3439537875484964 1.313318552003118 1.283895098733206 1.255896809316546 1.2295691743712642 1.2051918307103797 1.183078258719503 1.1635714518470865 1.1470334686142678 1.1338268340629434 1.1242868399328543 1.118686484618224 1.118686484618224
          2.4038506639075035 2.4038506639075035 2.399831881138711 2.3929054236643674 2.3831554666035184 2.3706962434046774 2.3556668202636377 2.338225243092692 2.3185425510879853 2.2967970793789885 2.273169365125726 2.2478378524058016 2.220975481414005 2.1927471590261898 2.163308045277612 2.1328025528426577 2.101363940022155 2.069114376643678 2.0361653713621375 2.002618463656122 1.9685661010025166 1.9340926390104731 1.8992754183429417 1.8641858863658922 1.828890743424748 1.7934531035268946 1.7579336672384074 1.722391911077343 1.686887302901909 1.6514805570067435 1.616234946037884 1.5812176894941556 1.5465014404240547 1.5121658926547243 1.478299529870771 1.4450015339561162 1.4123838613217363 1.3805734794554434 1.349714727097801 1.3199717137732803 1.291530599320441 1.2646014817036353 1.2394194633991598 1.2162442628939492 1.1953575092897377 1.177056667130874 1.1616445133300382 1.149413432673006 1.1406247514368792 1.13548500967886 1.13548500967886
          2.3937861609450595 2.3937861609450595 2.3899131485423006 2.3832333806756694 2.373821109445969 2.36177763408913 2.3472271139999696 2.330311800811041 2.311187059779445 2.290016512886284 2.2669675686128716 2.242207522327704 2.2159003307027425 2.1882040934742943 2.1592692214378184 2.1292372321702837 2.0982400932578944 2.0664000239408407 2.03382966673964 2.0006325476215987 1.966903753928131 1.9327307715728683 1.8981944355110352 1.863369959269311 1.828328019912649 1.793135883995407 1.757858567765428 1.722560031226371 1.6873044107132624 1.6521572984765345 1.617187080413746 1.582466344439237 1.5480733717838921 1.5140937212903598 1.4806219117287316 1.4477631981104564 1.4156354232026978 1.3843709025787498 1.354118267531238 1.32504414142822 1.297334458044512 1.2711951429290311 1.2468517731169229 1.224547717753833 1.2045401700788154 1.187093461788189 1.172469184826838 1.1609130319091978 1.152638980078251 1.1478124448507094 1.1478124448507094
          2.386956804595239 2.386956804595239 2.383180096222355 2.376663451655393 2.3674748094634905 2.355707203450356 2.3414752106945307 2.324910858486031 2.306159283723103 2.285374420032584 2.2627149436597556 2.238340650657387 2.2124093757121264 2.1850745052464706 2.1564830894023554 2.1267745215015865 2.0960797297231153 2.064520812707192 2.0322110465024212 1.9992551924123594 1.9657500417212554 1.9317851421752428 1.897443661070233 1.862803349855196 1.8279375846457664 1.7929164655694778 1.7578079652272909 1.7226791226660674 1.6875972840712339 1.652631394858763 1.6178533498637175 1.583339408676356 1.5491716814987766 1.5154396866126199 1.4822419728320355 1.4496877880380006 1.417898756609881 1.3870105025907558 1.3571741199827294 1.3285573452822985 1.301345230073616 1.2757400457138077 1.2519600852683945 1.2302369750850297 1.210811095715413 1.193924777344039 1.1798131245084142 1.1686926780860771 1.160748641856777 1.1561220092195483 1.1561220092195483
          2.3831394208128245 2.3831394208128245 2.3794156619269033 2.3729887058934835 2.3639231218428316 2.3523075062477345 2.338251267598963 2.321880892164942 2.3033359448425146 2.2827650510186777 2.2603220720085346 2.2361626392773117 2.2104411600136675 2.1833083557312887 2.154909351361411 2.1253822974830414 2.094857483735824 2.063456886488838 2.0312940870606306 1.9984744963859673 1.9650958261590068 1.9312487534971217 1.8970177347104058 1.862481932801516 1.8277162321330906 1.7927923218079311 1.7577798364164092 1.7227475487394925 1.6877646136336986 1.65290186554415 1.6182331737191094 1.5838368589576266 1.5497971731876565 1.5162058377329137 1.4831636269525117 1.4507819699753246 1.4191845232764781 1.3885086396077493 1.3589066233385665 1.3305466184904486 1.3036129253349404 1.2783054891647816 1.2548382603180515 1.2334361037526824 1.2143299626257282 1.1977500819718836 1.1839173028879189 1.1730327566397718 1.1652666975718353 1.1607476279084568 1.1607476279084568
          2.3831394208128245 2.3831394208128245 2.3794156619269033 2.3729887058934835 2.3639231218428316 2.3523075062477345 2.338251267598963 2.321880892164942 2.3033359448425146 2.2827650510186777 2.2603220720085346 2.2361626392773117 2.2104411600136675 2.1833083557312887 2.154909351361411 2.1253822974830414 2.094857483735824 2.063456886488838 2.0312940870606306 1.9984744963859673 1.9650958261590068 1.9312487534971217 1.8970177347104058 1.862481932801516 1.8277162321330906 1.7927923218079311 1.7577798364164092 1.7227475487394925 1.6877646136336986 1.65290186554415 1.6182331737191094 1.5838368589576266 1.5497971731876565 1.5162058377329137 1.4831636269525117 1.4507819699753246 1.4191845232764781 1.3885086396077493 1.3589066233385665 1.3305466184904486 1.3036129253349404 1.2783054891647816 1.2548382603180515 1.2334361037526824 1.2143299626257282 1.1977500819718836 1.1839173028879189 1.1730327566397718 1.1652666975718353 1.1607476279084568 1.1607476279084568
        </DataArray>
      </PointData>
      <CellData/>
    </Piece>
  </ImageData>
</VTKFile>
