<?xml version="1.0"?>
<VTKFile type="ImageData" version="0.1" byte_order="LittleEndian">
  <ImageData WholeExtent="0 50 0 25 0 0" Origin="0.0 0.0 0.0" Spacing="0.02 0.02 1.0">
    <Piece Extent="0 50 0 25 0 0">
      <PointData Scalars="Density">
        <DataArray type="Float32" Name="Density" format="ascii">
          10.0 7.560401352127322 5.902144467596321 4.8196625041122285 4.094776461057545 3.58909094388725 3.2213056840482426 2.943442579073904 2.726378774568568 2.551813816810597 2.407840452051749 2.2864543188752466 2.182113103383299 2.090876471662092 2.009876527039792 1.9369820035572383 1.8705793650054652 1.8094264262831405 1.7525521408145286 1.6991864841956899 1.6487103889749504 1.600619303232633 1.5544961696929667 1.5099910197688275 1.4668052734851977 1.4246794225306205 1.383383164328401 1.3427073203856508 1.3024570566326603 1.262446055924838 1.2224913931928922 1.182408946745104 1.1420092576719885 1.1010938361417546 1.0594520241858154 1.0168586803975521 0.9730731830830803 0.9278405995808156 0.8808964072762695 0.8319769744219115 0.7808392577269635 0.7272950437931995 0.6712677956264407 0.6128839853501422 0.5526156190779788 0.49149516443878716 0.43142285228001903 0.37556199552097047 0.32872312244291463 0.2973680298794044 0.2973680298794044
          10.0 7.560401352127322 5.902144467596321 4.8196625041122285 4.094776461057545 3.58909094388725 3.2213056840482426 2.943442579073904 2.726378774568568 2.551813816810597 2.407840452051749 2.2864543188752466 2.182113103383299 2.090876471662092 2.009876527039792 1.9369820035572383 1.8705793650054652 1.8094264262831405 1.7525521408145286 1.6991864841956899 1.6487103889749504 1.600619303232633 1.5544961696929667 1.5099910197688275 1.4668052734851977 1.4246794225306205 1.383383164328401 1.3427073203856508 1.3024570566326603 1.262446055924838 1.2224913931928922 1.182408946745104 1.1420092576719885 1.1010938361417546 1.0594520241858154 1.0168586803975521 0.9730731830830803 0.9278405995808156 0.8808964072762695 0.8319769744219115 0.7808392577269635 0.7272950437931995 0.6712677956264407 0.6128839853501422 0.5526156190779788 0.49149516443878716 0.43142285228001903 0.37556199552097047 0.32872312244291463 0.2973680298794044 0.2973680298794044
          10.0 6.9721543907581935 5.455243256619008 4.537566870490943 3.92073303672147 3.479496633201474 3.149967243340551 2.8953505357620988 2.692879968106789 2.5277942384279046 2.3901819951571914 2.2731934721887117 2.1719745264032344 2.0830077286012383 2.003692862569928 1.932072858938866 1.866650495163396 1.8062631157580586 1.7499952594313042 1.6971165547942912 1.6470367737853724 1.5992727331790828 1.5534235024079035 1.5091515125334785 1.4661679048404412 1.4242209521986546 1.3830867207810307 1.342561369715149 1.302454647671195 1.2625842620586056 1.2227708850138699 1.1828336332753737 1.142585927197985 1.1018317086358609 1.0603620915468448 1.0179526509984702 0.9743617519209997 0.9293306174981769 0.8825862974944999 0.8338494083314733 0.7828496140280922 0.7293535030567299 0.673212097054368 0.61443916985828 0.5533375704596551 0.4906998232700021 0.42812209385963773 0.3684831050185575 0.31662099398531823 0.2800448487213773 0.2800448487213773
          5.410543699683633 5.410543699683633 4.707842285586604 4.127788524580527 3.675999049199839 3.324556310673017 3.047424492666494 2.824975195723052 2.6430743422048355 2.4916087671806446 2.363295630074468 2.2528308836875106 2.1563005502382064 2.070776642058467 1.9940388761629229 1.9243813949182909 1.8604770283972498 1.8012807680814198 1.745960210880493 1.6938447524386753 1.6443879606307608 1.5971393170802999 1.551722686923569 1.507819666360297 1.4651564941959345 1.4234935822740842 1.3826169757843452 1.3423312344832685 1.302453354418497 1.262807443663816 1.2232199369496557 1.1835151922531815 1.143511365537925 1.1030165162339571 1.0618249657323036 1.0197140277051735 0.9764413722569844 0.9317435057391662 0.8853361907117793 0.8369181677793216 0.786180385309184 0.7328242736997047 0.6765947168779489 0.6173368217118265 0.5550915226594386 0.49025634921741057 0.4238621752783987 0.358075981472073 0.29718406992562074 0.2495880339827914 0.2495880339827914
          4.393947665443218 4.393947665443218 4.069017124743658 3.725325294814431 3.4153671415257336 3.150389149843073 2.9275161264468235 2.74016429369169 2.581628966377673 2.4461378851206863 2.329015819223872 2.226567585776602 2.1358972243056926 2.0547363943631285 1.98130192758269 1.9141837999099636 1.852259082825637 1.7946264504014662 1.7405563982890102 1.6894532817048733 1.6408261861673101 1.5942663895795763 1.5494297485923445 1.506022771616646 1.4637914570828663 1.422512206784999 1.3819842929121806 1.3420234807166729 1.3024564993801717 1.2631161209377015 1.2238366582472984 1.1844497336693134 1.1447802053715421 1.1046421730947071 1.0638350258109446 1.0221395480824305 0.9793141819681529 0.9350916653775194 0.8891764648486526 0.8412437372132547 0.7909410645932513 0.7378950280379186 0.6817260009059581 0.622076647083115 0.5586630350837201 0.4913634236236789 0.420374165798943 0.3465115045003485 0.2719575319129885 0.20282973861227035 0.20282973861227035
          3.753689706362695 3.753689706362695 3.589014974645349 3.3825084253144118 3.1728758641230286 2.977711622189227 2.80289832722506 2.6488091758573264 2.513581810578311 2.3946740971425418 2.289543073783765 2.1959057445161982 2.11181056503705 2.0356289440464823 1.9660173260004683 1.9018723101555763 1.8422880719068537 1.7865193145680598 1.7339503307663715 1.6840696862820428 1.6364496929314776 1.5907298024198726 1.5466031394945827 1.5038055140881055 1.4621063718027736 1.4213012464202506 1.3812053637883317 1.3416481144042953 1.3024681647424077 1.2635090176108812 1.2246148621226318 1.1856265764539322 1.1463777633924386 1.106690711542124 1.06637218583654 1.0252089620314402 0.9829630344780168 0.9393664502629173 0.8941157654715683 0.8468661983104466 0.7972256995556215 0.7447494217045108 0.6889355011871336 0.6292236525568089 0.5649983060007471 0.49559524883461636 0.4202935485928637 0.3381959665221194 0.24756436935128748 0.1427177434281641 0.0
          3.3270897111435263 3.3270897111435263 3.234519656717272 3.1050747758622705 2.961538157992134 2.8181520144129326 2.6823258426147776 2.5571486431383605 2.44330567758349 2.3402804945798836 2.2470377112398157 2.1623848419083442 2.085150833802011 2.0142650479351136 1.9487844546293136 1.8878952685992083 1.8309030033676932 1.7772181706036063 1.7263412018323177 1.6778482372541843 1.631378426475194 1.58662288666526 1.5433152291397558 1.5012234679625729 1.4601430954033492 1.419891112597767 1.3803008205688303 1.3412171971793383 1.302492704817797 1.2639833893956565 1.2255451424619541 1.1870300042620658 1.1482823856811033 1.1091350801264157 1.06940492068635 1.028887910381908 0.9873536094016088 0.9445384961166914 0.9001379191779755 0.8537961149917217 0.8050935685851572 0.7535307469701399 0.6985069634985466 0.6392929311560519 0.5749955922826107 0.504514118826427 0.42648566023500495 0.33921505183983985 0.2405763764658181 0.12799077830963357 0.0
          3.0257996354926755 3.0257996354926755 2.968819908212241 2.8835543637842918 2.7828025858502796 2.676393144881559 2.570708292904108 2.469365601046499 2.374096422250974 2.2854681000345853 2.203386931776004 2.127418406795148 2.056979019694128 1.9914451751302527 1.9302112701095893 1.8727177843020124 1.818462277548528 1.7670010352737981 1.717945892670924 1.6709588252246712 1.6257457390131063 1.5820502195464303 1.539647609665046 1.4983395677462086 1.4579491366637964 1.4183162896847046 1.3792938869710671 1.3407439609455112 1.302534241764934 1.2645348302308452 1.2266149211628445 1.1886394729055207 1.1504657056169105 1.1119392890740136 1.0728900453278376 1.033126935650899 0.9924320139771707 0.9505528935559469 0.9071930639823262 0.8619990739259521 0.814543108539475 0.7642987816745728 0.7106070123003408 0.6526278419060945 0.5892738641950057 0.5191246803667198 0.44033890782523744 0.35063676313757786 0.24758428814271272 0.12977455862919968 0.0
          2.8029126532732946 2.8029126532732946 2.7651776591696797 2.706257037636904 2.6334149196300576 2.553098014012441 2.470161887023435 2.387862185325718 2.308162754509369 2.2321007746487633 2.1600997790534042 2.0922031561053993 2.0282349818374183 1.9679049080653135 1.9108735694701775 1.8567915615799218 1.8053213638771373 1.7561485762237086 1.708986643504383 1.663577736526159 1.6196914585666493 1.5771224004326827 1.5356871550929756 1.4952211438543155 1.4555754446109899 1.4166137128415628 1.3782092244342283 1.3402420310838639 1.3025961941988125 1.2651570455156202 1.2278084073499962 1.1904296888970107 1.1528927535924303 1.115058421899199 1.076772427940775 1.0378605780574404 0.9981227503164091 0.957325203355212 0.9151903936046197 0.8713830717762138 0.8254907458309998 0.7769955081032471 0.725232515900684 0.6693278685564401 0.608105358420675 0.539949477958259 0.46262001826116456 0.3730648099714742 0.2674799999963875 0.14251325632913714 0.0
          2.6321577478936247 2.6321577478936247 2.6056722699004404 2.563161927954655 2.5088803839341827 2.447018343889317 2.381092396809546 2.3137487411594306 2.246812639789989 2.1814411930508686 2.1182945373832807 2.0576863625712427 1.9997016619910264 1.9442825781777564 1.8912879865604595 1.840533256071971 1.7918158181287485 1.7449309359708 1.6996808889927266 1.655879832690216 1.6133558803528918 1.5719514414340514 1.531522496161044 1.4919372435372502 1.4530743965463997 1.414821289059447 1.377071885820409 1.3397247374705858 1.302680888152388 1.2658417176218473 1.2291066783455264 1.1923708668843658 1.1555223441726208 1.1184390866302805 1.0809854033689819 1.0430075850917375 1.0043284435407662 0.9647402335220984 0.9239951840142804 0.8817924338025087 0.8377594506817987 0.7914247880234081 0.7421768616059854 0.6891994176074611 0.631366600689822 0.5670649287658379 0.4938780919057685 0.40801507262560416 0.3033301113630823 0.17029605840042775 0.0
          2.4978666190901215 2.4978666190901215 2.478384879258029 2.446528684170812 2.4048851125139565 2.3562051956090535 2.3029933150883233 2.2473034322920262 2.1906920206422984 2.134261249866774 2.078740335735836 2.0245732524898754 1.9719971148607804 1.9211056368034998 1.87189740302146 1.82431099336016 1.7782496521576026 1.7335980673408844 1.6902334030047528 1.6480322545857597 1.6068747698292802 1.566646833610867 1.5272409504315756 1.4885562630255866 1.450498004207781 1.4129765782256942 1.3759063962640679 1.339204539671136 1.3027892873229905 1.2665785152884546 1.2304879536437936 1.1944292635444664 1.1583078742357926 1.1220204909152078 1.0854521455130444 1.0484726067614853 1.0109318829940683 0.9726544242655395 0.9334314315481302 0.893010360490835 0.8510801731579654 0.8072499580472854 0.761016801845422 0.7117152805634294 0.6584330261362463 0.5998566620217114 0.5339536152694191 0.4571994910344883 0.36232452297630213 0.2304894836945991 0.0
          2.3901541725704125 2.3901541725704125 2.375257449344255 2.3505775331021868 2.317749154604968 2.2786117391506866 2.234947844129546 2.188320353855608 2.1400013704374645 2.090965850764151 2.0419219501069206 1.9933568539962148 1.9455848652860708 1.898790857331813 1.8530663660880098 1.8084379547296383 1.7648886255356695 1.722373470322474 1.680830785203057 1.6401897371661136 1.600375474612846 1.5613123790057943 1.5229259844575658 1.4851439533502175 1.4478963876757096 1.4111156732372985 1.3747359918968336 1.338692590766565 1.3029208624057105 1.2673552632069323 1.231928075370249 1.1965679987023463 1.1611985396851234 1.1257361445197565 1.0900879975385653 1.054149373185674 1.0178003842742114 0.9809019052355223 0.9432903576378527 0.9047709131287054 0.8651084761626864 0.8240155252926803 0.7811354761232754 0.7360196535928785 0.6880953939172862 0.6366236206657108 0.5806543793313286 0.5190500337734181 0.45097390227677925 0.3789536097398526 0.3789536097398526
          2.30248457783825 2.30248457783825 2.290712259519074 2.271021399841833 2.2444827984223688 2.2123536722537605 2.1759131877967524 2.136343818793415 2.0946640668209557 2.0517036801256885 2.008107721200668 1.964356816094346 1.920794168785687 1.877653355564741 1.8350836460173396 1.793171453647981 1.7519576333154285 1.7114509281095434 1.6716381185255762 1.6324914849411856 1.5939741546148418 1.5560438233130192 1.5186552504713124 1.4817618409784161 1.445316552615375 1.4092723073805435 1.3735820365112505 1.3381984511410847 1.303073601139971 1.2681582618188518 1.2334011701377012 1.1987481174172145 1.1641408931952681 1.1295160639806507 1.094803560850592 1.0599250414225103 1.0247919863346773 0.9893034923174266 0.9533437432007619 0.9167791989547188 0.8794556904413429 0.841195956473251 0.8017989767449931 0.7610444027937402 0.7187102040627916 0.6746240524494511 0.6288020954861715 0.5818182942941329 0.5357793248788989 0.4967729672283093 0.4967729672283093
          2.2303667685999904 2.2303667685999904 2.2207931485460253 2.2046645430695513 2.1827059696095987 2.1557968597738055 2.124867113127671 2.0908137734630983 2.0544457848477813 2.0164553701748154 1.9774100850067484 1.9377585702406201 1.8978439243531662 1.8579202140068862 1.818169225830359 1.7787158269346528 1.739641185929741 1.700993661310605 1.6627974753596229 1.625059440198251 1.5877740516127523 1.5509272599484136 1.514499194103521 1.4784660714095117 1.4428014822906992 1.4074771986426344 1.3724636206645553 1.3377299487356422 1.303244144420352 1.2689727271479414 1.2348804398739452 1.2009298076327757 1.16708060722699 1.133289264842857 1.0995082025474918 1.0656851674333174 1.0317626045199193 0.9976771875591387 0.9633597217216433 0.9287358191376266 0.8937281010201983 0.8582613549346614 0.8222733899312233 0.785736938028432 0.7487031820438008 0.7113879503044289 0.6743416486316456 0.6387771254078486 0.6071589289353 0.5840551516036439 0.5840551516036439
          2.1706152498676 2.1706152498676 2.1626293464640107 2.1491011289776263 2.130536668692712 2.107565662145176 2.080874819401295 2.051150064348615 2.019033839928948 1.985098658798913 1.9498347517156582 1.913648251280485 1.8768662473796056 1.8397456391722478 1.802483523825837 1.765227638038216 1.7280859901085552 1.6911352651954141 1.6544278761570712 1.6179977035443254 1.5818646569717136 1.5460382256666394 1.5105201900576959 1.475306653450172 1.4403895324571414 1.4057576224600539 1.3713973330370826 1.3372931695597645 1.3034280216837009 1.2697833074872067 1.2363390136715542 1.203073667789999 1.1699642785542979 1.1369862861849551 1.1041135789644416 1.0713186589498263 1.0385730867221614 1.0058484150780367 0.9731179571515542 0.9403599645438905 0.9075631833135427 0.8747364269383674 0.8419249520025325 0.8092383524528945 0.7768977997158828 0.7453149374629373 0.7152192513946369 0.6878479733816495 0.6651772317576127 0.6500391767752828 0.6500391767752828
          2.1209103739070487 2.1209103739070487 2.11409468954595 2.1024989835410794 2.0864866682305436 2.0665192213241372 2.0431127181027975 2.0167977215105015 1.9880871714246888 1.957454032188061 1.925318279321722 1.8920415737409475 1.8579275429079918 1.8232256839597873 1.7881372606631407 1.7528219973307597 1.7174047720961267 1.6819818332043983 1.6466262964083056 1.6113928390325862 1.5763216034294625 1.5414413763073695 1.506772135095427 1.4723270590386113 1.4381140988710432 1.4041371899026673 1.3703971825138772 1.3368925534328961 1.3036199520098455 1.2705746287903377 1.2377507896583089 1.2051419183707712 1.1727411144763589 1.140541504039088 1.1085367999420352 1.0767221211109244 1.045095232619449 1.0136584521402776 0.9824215994934622 0.9514065709556148 0.9206544363768698 0.8902364355892236 0.8602709440653471 0.8309493950104826 0.8025751011162776 0.7756191286912313 0.7507944922192761 0.7291382052752698 0.7120589850574924 0.7012443069978358 0.7012443069978358
          2.079525658898548 2.079525658898548 2.0735861044537582 2.0634465577205154 2.0493751460595746 2.0317180309352607 2.010870459849751 1.9872487147770896 1.9612662014043218 1.9333153355598212 1.9037555097984713 1.8729064981536176 1.8410461919499679 1.8084114488509075 1.7752009458859797 1.7415791391874966 1.7076806688173254 1.673614761207998 1.6394693548588237 1.6053148034753182 1.5712070994799574 1.5371906177349595 1.5033004127066405 1.469564119413469 1.4360035150709016 1.4026357986249867 1.3694746423609114 1.3365310655497458 1.303814176077828 1.2713318232192048 1.2390912040236115 1.2070994680914615 1.1753643719114542 1.1438950460127828 1.1127029582192451 1.081803187637585 1.0512161715039803 1.0209701574222971 0.9911046958199641 0.9616756522214257 0.9327624154425236 0.904478224686323 0.8769847997809862 0.8505126076506462 0.8253877980585722 0.8020653266510213 0.7811635467194395 0.7634862233528108 0.7500015114831987 0.7417280964141568 0.7417280964141568
          2.0451525908921324 2.0451525908921324 2.0398762620153676 2.030844585745261 2.0182607137294575 2.0023905390191334 1.9835429921998284 1.962050172337664 1.9382495338690413 1.9124694812616416 1.8850188790458802 1.856180337834467 1.826206740068348 1.7953202956990568 1.7637134057590902 1.731550695067076 1.6989717010703425 1.6660938382655812 1.6330153765845195 1.5998182688842841 1.5665707357707865 1.5333295678045444 1.5001421396787684 1.4670481524499523 1.4340811321379703 1.4012697191038024 1.368638784962442 1.336210414197311 1.304004787455244 1.2720410037597698 1.2403378804723044 1.208914773626709 1.1777924682491279 1.1469941996841526 1.1165468843801556 1.0864826641019076 1.056840903654857 1.0276708316382273 0.9990350785412858 0.9710144458412838 0.9437143250050559 0.9172732495991452 0.891874041956694 0.8677577692203322 0.8452399863376596 0.8247270692628799 0.8067272318479788 0.7918456817702879 0.7807473250894432 0.7740685743869258 0.7740685743869258
          2.0167845935878863 2.0167845935878863 2.012013391042961 2.0038288586533595 1.9923891152426 1.9779035040194033 1.9606188618654679 1.9408052082478262 1.9187423687396468 1.894708573425664 1.8689715579554727 1.841782258797747 1.81337088770661 1.7839449979784192 1.7536890927316935 1.7227653389770854 1.6913150081352648 1.6594603386560816 1.6273065927123649 1.5949441471419978 1.5624505148132297 1.5298922357338938 1.4973266087405923 1.4648032565332798 1.4323655313801864 1.4000517780539368 1.3678964762088968 1.3359312878800047 1.3041860381968895 1.2726896596735653 1.2414711333306683 1.2105604641574175 1.1799897347612927 1.149794290282043 1.1200141206259997 1.090695523655223 1.0618931557270284 1.0336726036548596 1.006113642414048 0.9793143689859023 0.9533964091656401 0.9285113495924866 0.9048483935011391 0.8826428772811261 0.8621845690360939 0.8438234267257503 0.8279686328933454 0.8150745423979501 0.8056059535609896 0.7999777932256394 0.7999777932256394
          1.9936381623732298 1.9936381623732298 1.9892517733270023 1.9817146464595863 1.9711533496813638 1.9577370855956358 1.9416678697232217 1.9231700034144832 1.9024798824943159 1.879836923952431 1.8554760832572545 1.8296221461317412 1.8024857532321525 1.7742609681521464 1.7451241227348846 1.7152336528633074 1.6847306542152576 1.653739924451943 1.6223713034925804 1.5907211686859561 1.5588739821641804 1.5269038214098367 1.494875850731326 1.4628477115291152 1.4308708240009373 1.398991603454656 1.3672526017986182 1.3356935900536184 1.304352601720057 1.273266960243956 1.2424743172535724 1.2120137322026587 1.1819268290123222 1.1522590716322705 1.1230612083872042 1.094390944481428 1.066314912428215 1.0389110195445066 1.0122712558102838 0.9865050361101826 0.9617431132707115 0.9381420073644267 0.9158887138944128 0.8952051262649875 0.8763510806460468 0.8596241817458604 0.8453536943612745 0.8338851620946445 0.8255528758288659 0.8206401465167407 0.8206401465167407
          1.9750980587796165 1.9750980587796165 1.971002651118803 1.9639562831965542 1.9540633383568726 1.9414645013116894 1.9263295151189115 1.9088492300631448 1.889227672194299 1.8676747187671974 1.844399780333386 1.8196066991510826 1.793489911496898 1.7662318022631185 1.738001105958395 1.7089521728567316 1.6792249129034649 1.6489452430465206 1.6182258873231135 1.5871674068652397 1.5558593647229404 1.5243815555758113 1.4928052518722432 1.4611944354448128 1.4296069974627843 1.3980959002259965 1.3667103024001483 1.3354966554593035 1.3044997838989154 1.273763965696136 1.2433340329222067 1.2132565156619448 1.1835808556670504 1.1543607195121806 1.1256554442457753 1.097531651038558 1.0700650628517991 1.0433425582489195 1.017464480892382 0.9925471959456691 0.9687258295839126 0.9461570304482136 0.9250214324646937 0.9055252579371768 0.8879001729722648 0.872400130507644 0.8592936340855423 0.8488498960402784 0.8413181726533749 0.8369015738844792 0.8369015738844792
          1.9606785105747593 1.9606785105747593 1.9567990109763727 1.9501174845065883 1.940722830616195 1.9287356688987023 1.914302795752619 1.8975909738523886 1.8787805777062325 1.8580595428038333 1.8356179513465205 1.8116434614663783 1.786317670473824 1.7598134088892246 1.732292895712113 1.7039066455804226 1.6747930007749536 1.6450781597120008 1.6148765830299 1.584291673892587 1.5534166471569617 1.5223355201760727 1.491124174788603 1.4598514547479582 1.4285802752361194 1.397368731260467 1.3662711998858992 1.3353394377203522 1.3046236801658861 1.2741737529509902 1.2440402095882168 1.2142755107782581 1.1849352634040602 1.156079537445661 1.127774278456981 1.1000928303508106 1.0731175767315446 1.046941696652302 1.021671009050304 0.9974258443611337 0.974342825498455 0.9525763560966923 0.9322994953553361 0.9137037458395737 0.8969971088318631 0.8823996180242897 0.8701355423282031 0.8604217054120868 0.8534520822220903 0.8493800911258357 0.8493800911258357
          1.9499953284928642 1.9499953284928642 1.946269999529465 1.9398493598921736 1.930811783864711 1.9192641696117594 1.90533749542177 1.8891817579249996 1.8709606844552313 1.8508465716357285 1.8290155308238918 1.8056433351891668 1.780901977860956 1.754956976251084 1.7279653999075855 1.7000745595293947 1.671421271637677 1.6421316038633538 1.6123210063451348 1.5820947419719142 1.5515485393152224 1.5207694049182086 1.4898365446251902 1.45882235589251 1.4277934639879661 1.3968117844371362 1.3659356019813242 1.3352206627543342 1.3047212814876992 1.2744914694327323 1.2445860914102866 1.2150620619464851 1.1859795906795487 1.1574034858091986 1.1294045207496346 1.102060862470451 1.0754595489950756 1.0496979864145153 1.0248854102837677 1.0011442197027383 0.978611042062189 0.9574373207479494 0.9377891386198819 0.9198459052383163 0.9037974662470568 0.8898391780270944 0.8781645902156525 0.8689556670217464 0.8623710114564392 0.8585333075310486 0.8585333075310486
          1.9427456485765757 1.9427456485765757 1.9391221652555397 1.9328740225666856 1.9240728969701506 1.9128169165442308 1.8992268895225701 1.8834419569343037 1.8656149802931261 1.8459079558834333 1.8244877003306623 1.8015219901202641 1.7771762717946995 1.751610998360548 1.724979596461914 1.6974270306168822 1.6690889054148303 1.640091032626555 1.6105493854742874 1.580570364407459 1.5502513053524516 1.5196811706347662 1.4889413731319352 1.4581066946520358 1.4272462693573038 1.3964246118608827 1.3657026772155167 1.3351389463118957 1.304790535201044 1.2747143305486843 1.2449681557825336 1.2156119733901436 1.1867091280308744 1.1583276322478493 1.130541491013364 1.103432052293099 1.0770893572094848 1.0516134439622418 1.0271155331090833 1.003718987081489 0.9815598937793457 0.9607870746209235 0.9415612670413118 0.9240531914945669 0.908440202969389 0.894901275366683 0.8836102083380597 0.8747272099341961 0.8683893967309907 0.8647012083379014 0.8647012083379014
          1.9386931346356562 1.9386931346356562 1.9351256445777643 1.9289723387994993 1.920301318748349 1.9092060036373533 1.8958017153709708 1.8802217110356576 1.8626129320042883 1.8431317301145795 1.8219397960215753 1.7992004646165691 1.775075516583218 1.749722541175501 1.723292878369802 1.6959301215497722 1.6677691356933244 1.6389355300288937 1.6095455167923165 1.5797060871239015 1.5495154393442456 1.5190636020861457 1.4884332036056858 1.4577003479630888 1.4269355678905762 1.3962048325551493 1.3655705957850302 1.3350928765000916 1.3048303679826874 1.2748415761780643 1.2451859893259296 1.215925281727351 1.187124553063807 1.1588536009832278 1.1311882180583441 1.1042114939406797 1.0780150886791073 1.0527004228206505 1.028379703349577 1.0051766716718586 0.9832269219650535 0.9626775988629674 0.9436862497865095 0.926418591247993 0.9110449675092329 0.8977353554551882 0.8866529218611937 0.8779463774713332 0.8717416784283806 0.8681339355548785 0.8681339355548785
          1.9386931346356562 1.9386931346356562 1.9351256445777643 1.9289723387994993 1.920301318748349 1.9092060036373533 1.8958017153709708 1.8802217110356576 1.8626129320042883 1.8431317301145795 1.8219397960215753 1.7992004646165691 1.775075516583218 1.749722541175501 1.723292878369802 1.6959301215497722 1.6677691356933244 1.6389355300288937 1.6095455167923165 1.5797060871239015 1.5495154393442456 1.5190636020861457 1.4884332036056858 1.4577003479630888 1.4269355678905762 1.3962048325551493 1.3655705957850302 1.3350928765000916 1.3048303679826874 1.2748415761780643 1.2451859893259296 1.215925281727351 1.187124553063807 1.1588536009832278 1.1311882180583441 1.1042114939406797 1.0780150886791073 1.0527004228206505 1.028379703349577 1.0051766716718586 0.9832269219650535 0.9626775988629674 0.9436862497865095 0.926418591247993 0.9110449675092329 0.8977353554551882 0.8866529218611937 0.8779463774713332 0.8717416784283806 0.8681339355548785 0.8681339355548785
        </DataArray>
      </PointData>
      <CellData/>
    </Piece>
  </ImageData>
</VTKFile>
