<?xml version="1.0"?>
<VTKFile type="ImageData" version="0.1" byte_order="LittleEndian">
  <ImageData WholeExtent="0 50 0 25 0 0" Origin="0.0 0.0 0.0" Spacing="0.02 0.02 1.0">
    <Piece Extent="0 50 0 25 0 0">
      <PointData Scalars="Density">
        <DataArray type="Float32" Name="Density" format="ascii">
          10.0 7.10545632737748 5.138968792989159 3.8568962271272964 3.0004440779528347 2.4054252249345187 1.9753764742636069 1.6533630481521504 1.404817405459011 1.2080097838311499 1.0487936889504168 0.9176516100060006 0.8079858368487782 0.7150983555420974 0.6355629286198419 0.5668270755159437 0.5069528026777865 0.4544434296338777 0.4081252459631936 0.3670649394555759 0.33051088505881954 0.2978506779117911 0.2685799340219337 0.24227904194857897 0.21859561400449 0.19723108224993247 0.17793034852397918 0.1604737118772004 0.14467051275845422 0.13035408401373128 0.1173777054107243 0.10561133498247359 0.09493894636591681 0.08525634295228782 0.07646935168202153 0.06849232522257084 0.06124690402993613 0.054661012303591446 0.04866808738962005 0.043206575009978446 0.03821976866564889 0.03365613893099807 0.02947039823457475 0.02562569178327847 0.022097501743174493 0.018880069205222175 0.015996213721500344 0.01351079737187363 0.011545130997542077 0.010280714346974657 0.010280714346974657
          10.0 7.10545632737748 5.138968792989159 3.8568962271272964 3.0004440779528347 2.4054252249345187 1.9753764742636069 1.6533630481521504 1.404817405459011 1.2080097838311499 1.0487936889504168 0.9176516100060006 0.8079858368487782 0.7150983555420974 0.6355629286198419 0.5668270755159437 0.5069528026777865 0.4544434296338777 0.4081252459631936 0.3670649394555759 0.33051088505881954 0.2978506779117911 0.2685799340219337 0.24227904194857897 0.21859561400449 0.19723108224993247 0.17793034852397918 0.1604737118772004 0.14467051275845422 0.13035408401373128 0.1173777054107243 0.10561133498247359 0.09493894636591681 0.08525634295228782 0.07646935168202153 0.06849232522257084 0.06124690402993613 0.054661012303591446 0.04866808738962005 0.043206575009978446 0.03821976866564889 0.03365613893099807 0.02947039823457475 0.02562569178327847 0.022097501743174493 0.018880069205222175 0.015996213721500344 0.01351079737187363 0.011545130997542077 0.010280714346974657 0.010280714346974657
          10.0 6.407053034003966 4.608268015750682 3.52180978118002 2.7936323557035365 2.2751385117327745 1.8905228334539097 1.5961231217128264 1.3649162147417413 1.1793734466296053 1.0277177614230497 0.9018024494657588 0.7958468893120741 0.7056552038721691 0.6281189611825609 0.5608924452292651 0.5021756483385599 0.45056614356995595 0.404955982073083 0.36445862893849224 0.328356323220574 0.2960615723099071 0.26708858958768317 0.24103183427578345 0.21754969617424375 0.19635195622135412 0.17719005150072667 0.15984944615956212 0.14414359950319208 0.12990915632428737 0.11700208006193893 0.10529451851043048 0.09467224255593143 0.08503253640610886 0.07628244702340437 0.06833732405960352 0.061119602117734255 0.054557797163246415 0.04858571124622229 0.04314186813041301 0.038169242306665574 0.03361540325564907 0.02943328824285049 0.025582960278505568 0.022034934917941604 0.018776017753150246 0.015819130008744027 0.013219212179494753 0.011096990941337086 0.009666231107368651 0.009666231107368651
          4.553183547729659 4.553183547729659 3.7207371294567455 3.0350312227763734 2.5027907488754426 2.090918700745428 1.7685338134556814 1.5123469271372372 1.3055809890839716 1.1362248409509805 0.9956218541108806 0.8774604657733326 0.7770763234955287 0.6909734008007531 0.6164943177771199 0.5515915087317794 0.4946666739838363 0.4444567832596581 0.3999521193602832 0.3603366188096074 0.32494391228032427 0.29322455258285657 0.2647213099864414 0.23905035248213896 0.21588676689234026 0.19495331579554093 0.17601163053353283 0.1588552551519817 0.14330410855993234 0.12920004161905613 0.11640324524984298 0.10478932384856915 0.09424689151465207 0.08467558116190349 0.07598438171868754 0.06809023876429235 0.06091687116387124 0.054393772531366305 0.048455383896346224 0.043040445676948605 0.03809156717383391 0.03355509689678661 0.02938144826879205 0.025526153433593365 0.021952127315051435 0.01863403276432848 0.015566534165274044 0.012780386675934032 0.010375539125759468 0.008590586753677408 0.008590586753677408
          3.346002964860308 3.346002964860308 2.9619475529204085 2.5568262558911927 2.192981129198867 1.8837879441372085 1.6258504334094535 1.4113608504671298 1.2323601287612869 1.0819898197238669 0.9546888341235256 0.8460556625477325 0.7526345986959961 0.6717127666694935 0.6011516671582839 0.5392547863932106 0.4846660262950851 0.43629254083258506 0.3932462462164888 0.35479939846940944 0.3203507067592576 0.28939933468678253 0.2615248239184948 0.2363714853574551 0.21363617991250813 0.193058687253588 0.174414063296743 0.15750653561569494 0.14216459529028558 0.12823702459430994 0.11558966013453788 0.10410273616440305 0.09366868685777022 0.08419031230297686 0.0755792330756102 0.06775457418185901 0.06064183235125519 0.0541718924125147 0.04828017022364125 0.04290587312087146 0.03799138659603524 0.033481821669158834 0.029324797093608537 0.025470593922175187 0.021872926230444033 0.018490773112683812 0.015292215310184558 0.01226295589895067 0.009429848120133366 0.006946984195287322 0.006946984195287322
          2.5854136875703935 2.5854136875703935 2.3915955605785086 2.1493485041532203 1.9046357454045644 1.6783593221568611 1.4775135537870798 1.302546236566485 1.1512452084822467 1.0205859605428493 0.9075384920122764 0.8093777270412783 0.7237691176836909 0.648759218512102 0.5827312822747093 0.5243525565570105 0.47252430213166163 0.4263383828177303 0.38504112939503693 0.34800391252734164 0.3146994478016339 0.2846828147834072 0.2575762751843321 0.23305712051449437 0.210847923385873 0.19070869272477595 0.17243053756847798 0.1558305279908928 0.1407475079299112 0.12703866649460774 0.11457671465546321 0.10324754554028867 0.09294828086889632 0.08358562493364888 0.07507446219620373 0.06733664597689912 0.06029993461553737 0.053897038501762286 0.04806474707149409 0.042743109831638995 0.03787465041468596 0.03340359839249921 0.029275130402530797 0.025434616571544527 0.021826849018532993 0.018395091906959902 0.015079149687949503 0.01180892324094261 0.00847847277451283 0.004836031216405121 0.0
          2.0783880221228546 2.0783880221228546 1.9701792494370174 1.819440319415849 1.6532273790915315 1.4884574548274565 1.3339331565583552 1.1933235440491279 1.0674392410273805 0.9556596658689964 0.8567441052101836 0.7692618524393731 0.6918047550240649 0.6230815548163422 0.5619507291447865 0.5074229740757 0.4586499374730922 0.41490779172080017 0.3755799046606401 0.34014057244892315 0.3081405908753603 0.2791948493321831 0.2529718540936731 0.22918497335269555 0.20758516428207718 0.18795494914648392 0.17010343073411044 0.1538621657477519 0.13908174282989802 0.1256289372179181 0.11338433582076374 0.1022403447198368 0.0920995059904002 0.08287306268306899 0.07447972014766768 0.06684455889364689 0.059898059009784094 0.05357519879946514 0.047814590514345015 0.042557613430046284 0.0377474982608715 0.03332830603182321 0.029243727748959062 0.02543560683448683 0.021842050254911573 0.018394930880554754 0.015016435854168755 0.011613945222973338 0.00807205929909196 0.004244669227205571 0.0
          1.7200945745978122 1.7200945745978122 1.6541514269151807 1.5558852487668453 1.4404968624838783 1.319659667008097 1.2009533935761398 1.0886721341649677 0.9848667499298365 0.8902022612121986 0.8045552291043592 0.7273943460765708 0.6580086218295168 0.5956371622062111 0.5395386184936655 0.48902503448840606 0.4434754089140639 0.40233816957824425 0.3651279462526694 0.3314197228857913 0.30084208019824865 0.2730704395330655 0.24782075905835266 0.22484387468361922 0.20392053675840238 0.1848571201261064 0.16748195014307313 0.1516421737160788 0.137201102316865 0.12403595758557406 0.11203595629653619 0.10110067832439912 0.09113866782616226 0.08206622359913748 0.07380633915386538 0.06628775618212514 0.0594440964704327 0.05321303639741241 0.04753548413059089 0.042354711188341804 0.0376153751815342 0.033262346673036694 0.02923921776682458 0.025486324871475015 0.021938082095198288 0.01851947324748042 0.015141948492927958 0.011700474676867925 0.008078033747809611 0.004175148857528712 0.0
          1.454875073634737 1.454875073634737 1.4117921995248817 1.3448241842132371 1.2625976717890728 1.1727681827795196 1.081100252578721 0.9914561040039236 0.90616097912571 0.8264365168346901 0.7527724989648015 0.6852043415205973 0.6235043965947025 0.567306882628018 0.5161859685621265 0.4697024989285018 0.4274304875815515 0.38897094293786416 0.3539579859744182 0.3220604347201045 0.2929808445005152 0.26645322674699157 0.24224018161047384 0.220129873692413 0.19993309070680887 0.18148050916101216 0.16462022172250523 0.14921554032496814 0.13514306618980215 0.12229100583167023 0.11055770640715629 0.0998503817120947 0.09008400000286208 0.08118030548630743 0.07306694601021704 0.06567667955906586 0.05894663097508458 0.052817567061063386 0.047233151665498 0.04213913058806175 0.03748237610279503 0.03320968775088558 0.02926619277979596 0.025593108234768163 0.022124517432992125 0.018782723845744313 0.015471914030851304 0.012071198019320124 0.008433586586792437 0.004415165122014722 0.0
          1.251557386375012 1.251557386375012 1.2218413163620592 1.1743741715884692 1.114206536847495 1.0463132592699285 0.9748669819182645 0.9030044474096219 0.8328848093981527 0.7658708586969152 0.702732321275419 0.6438247409764974 0.5892295515638766 0.5388563292991533 0.49251390524618416 0.44995797055678777 0.4109218559185396 0.37513569887419507 0.3423378176094878 0.3122809790282523 0.2847354020989328 0.25948973185644336 0.23635079894276917 0.21514269342686018 0.19570548979009544 0.17789383284174415 0.16157551098342057 0.1466300891755912 0.13294763930165038 0.12042758372213586 0.1089776542036246 0.09851296010784616 0.08895515472523025 0.08023168555069803 0.0722751121286904 0.06502247303774865 0.058414680877776466 0.05239591986400201 0.04691301354578416 0.04191471822034037 0.0373508772918213 0.033171336726180826 0.02932445952882576 0.025754962764011104 0.022400580815341353 0.019186618696434184 0.016016571462476384 0.012755382109224736 0.009200721751688873 0.00505055358742966 0.0
          1.0915503672674163 1.0915503672674163 1.0701586593906922 1.035355652146654 0.9902117598422517 0.9379907701048342 0.8816617531453772 0.8236566399445633 0.7658140158673492 0.7094302425463925 0.6553560450027979 0.6041007724639048 0.5559256693327055 0.5109194908638323 0.4690561323904632 0.4302366828658862 0.3943190926238503 0.36113849780051194 0.33052074659910774 0.3022911110193855 0.2762796635363808 0.25232438981011696 0.23027279615647867 0.20998254007547534 0.1913214462010684 0.17416715259070273 0.1584065502129367 0.14393512174678535 0.1306562469138727 0.11848051512117294 0.1073250683421558 0.0971129851766967 0.08777270897176086 0.07923751737236576 0.07144502668579908 0.06433672117841596 0.05785749416999056 0.051955183788797314 0.046580080525032035 0.04168437478014139 0.037221497862990664 0.033145284305662374 0.0294088361384589 0.025962874850990324 0.022753154022971483 0.019715962907063997 0.01676916157078098 0.01379086313889167 0.010557768368822478 0.006531220149769117 0.0
          0.963125056709268 0.963125056709268 0.9471844705737574 0.9209138728604245 0.8862517995576191 0.8453782791381151 0.8004038713847801 0.7531760151773226 0.7051943512155495 0.6576030390318698 0.6112267713099839 0.5666252759646637 0.5241505743792693 0.48399879822654196 0.44625331244466365 0.4109186989833655 0.37794651443250654 0.3472542321600406 0.3187388228355823 0.29228626483093695 0.26777804550398093 0.24509548414945248 0.2241225064095608 0.20474733652885654 0.18686344663796606 0.17037000605208022 0.1551720022761983 0.14118015335422668 0.12831069362345204 0.11648508805699913 0.10562971128763202 0.09567551391866189 0.08655768921417908 0.07821534651487136 0.07059119284730987 0.06363122049835054 0.0572843952679118 0.05150233722941024 0.04623898268275035 0.0414502121245432 0.03709342395906811 0.033127026702389206 0.02950981296207214 0.026200166834063517 0.023155049400335383 0.02032874742406916 0.017671686305293657 0.015131374239728494 0.012666773677705762 0.010335099067247085 0.010335099067247085
          0.858526578005304 0.858526578005304 0.8463015734021015 0.8259642824309269 0.7987827644923524 0.7662446481123754 0.7298615734141678 0.6910280735860973 0.6509415071226681 0.6105725338182258 0.5706699302955116 0.5317846976918664 0.49430226900543006 0.45847569739627464 0.42445595151460885 0.39231765037086186 0.36207989548489605 0.3337225553314486 0.3071986560242568 0.2824436027287076 0.2593819103098745 0.23793202651169162 0.21800972369386123 0.19953043428078623 0.18241081824121624 0.16656977996316166 0.15192909585318393 0.13841377077478798 0.12595220868872975 0.11447625836285631 0.10392117689022576 0.09422554045117909 0.08533112206256546 0.07718274903990656 0.06972814785271403 0.0629177804709361 0.056704673848226125 0.05104424271787704 0.045894105493773374 0.04121389430429013 0.036965064430614085 0.03311071894902066 0.029615488942305857 0.026445567307450117 0.02356913414217137 0.020957766629642476 0.018590362574857612 0.01646361624419373 0.01461955262304801 0.013214351428188989 0.013214351428188989
          0.7724262251318659 0.7724262251318659 0.7628165418685443 0.7467166031308341 0.7249831857467801 0.6986544426004738 0.6688262900412788 0.6365532972076211 0.6027829593308343 0.5683216407330648 0.5338251315113991 0.4998055321854127 0.4666472415707831 0.4346267188428198 0.4039325715864786 0.37468402431205483 0.34694687314873424 0.32074669296434133 0.2960794340743871 0.27291972315906776 0.25122724216008935 0.23095155225886527 0.21203569129103192 0.19441882229356028 0.17803815942143458 0.1628303506755108 0.1487324569060894 0.13568263374446304 0.12362059692079996 0.11248793094046941 0.10222828532445988 0.09278749065174546 0.08411361768069157 0.0761569962320869 0.06887020580241542 0.06220804671592926 0.05612749886919008 0.050587674853893885 0.045549775896030764 0.040977063661308516 0.036834870725501005 0.03309069181797078 0.0297144358191088 0.026678993368786194 0.023961424357832276 0.021545366502225605 0.019425832193716044 0.017618495833549484 0.016176412094782936 0.01521431266806424 0.01521431266806424
          0.7010443404056047 0.7010443404056047 0.6933235776202256 0.6803173537267587 0.6626219000260689 0.640978097690553 0.6161922546006884 0.5890673546228548 0.5603522714760918 0.5307103145599559 0.5007045627805202 0.4707957570060571 0.4413483977238792 0.41264139122284293 0.3848805550560232 0.3582112149192232 0.33272986393577797 0.30849438440496146 0.2855326769758527 0.2638497462465583 0.2434333977421546 0.2242587440376743 0.2062917230793479 0.18949181689898403 0.1738141349570856 0.15921099985512055 0.14563314771988753 0.13303063291154926 0.12135350746435285 0.11055232984720101 0.10057854493983112 0.09138476715146186 0.0829249909428467 0.07515474727831913 0.06803122044415964 0.061513337048520376 0.05556183783980397 0.05013934342712589 0.04521042755773029 0.0407417173135889 0.03670205029949021 0.03306273790373061 0.02979801660772473 0.026885824899629686 0.024309133064634565 0.022058182907269807 0.0201341283036918 0.018554504608720622 0.017359994553054037 0.016618261664726193 0.016618261664726193
          0.6416285401025805 0.6416285401025805 0.6353001890148665 0.6245933686169054 0.6099344532711248 0.5918639724919276 0.5709849107860059 0.5479150008918445 0.5232485359602526 0.4975297997989168 0.4712376233374695 0.4447791077728963 0.41849004250732924 0.3926396575357838 0.3674377726048672 0.3430429172479815 0.31957047001707634 0.29710024706135796 0.27568324902754615 0.2553474626996345 0.2361027295626169 0.21794475761737858 0.20085838227275588 0.18482018995062147 0.16980061334709556 0.1557655962306216 0.14267791209029468 0.13049820715718527 0.11918582554060325 0.10869946302338349 0.09899768662660272 0.09003934935246839 0.08178392341412982 0.07419177060833165 0.06722436515173313 0.06084448221756294 0.055016364608243516 0.04970588065755354 0.04488068895368531 0.0405104304805299 0.036566977335188294 0.03302478074918094 0.02986138131012389 0.027058171508018945 0.02460153023355395 0.022484459353577242 0.02070877943257646 0.01928762549116832 0.01824711198498472 0.01762425384010894 0.01762425384010894
          0.5921301519060794 0.5921301519060794 0.5868443733343396 0.5778702810950933 0.5655207287276549 0.5501988151492501 0.5323634552694555 0.5124960201175538 0.4910719092482139 0.4685390302055136 0.4453035259665196 0.4217219900201807 0.39809885401394507 0.3746874996676416 0.35169377446490596 0.3292808417644387 0.3075745755864047 0.2866689646355258 0.26663119583006734 0.24750624042304692 0.2293208713204894 0.21208710785275395 0.1958051238594498 0.18046567507048444 0.16605210916011245 0.15254202148543514 0.1399086148500289 0.1281218149388669 0.11714918578076207 0.10695668254759988 0.09750927264560433 0.0887714506008152 0.08070766775796243 0.07328269430040417 0.06646192854192234 0.06021166683973921 0.054499346878424886 0.0492937775906999 0.044565370809797965 0.040286393157632744 0.036431261927795514 0.03297691583344187 0.029903299557462133 0.02719400670284731 0.0248371198566673 0.02282624795502449 0.02116164799565838 0.019851063348993017 0.018909454950631368 0.018356249766969895 0.018356249766969895
          0.5509963254177984 0.5509963254177984 0.5464997962657847 0.5388440128719661 0.5282643656611191 0.5150682255033163 0.4996115124113129 0.48227507269785896 0.46344350951035485 0.44348807793571693 0.4227542513721792 0.40155379549477715 0.38016071297610654 0.3588102145615213 0.337699856457071 0.3169920821906839 0.29681755602360693 0.2772788320422912 0.2584540442092332 0.24040041749082305 0.22315748690664658 0.20674997275542784 0.19119030105704352 0.17648078338263984 0.1626154841730296 0.1495818099772028 0.13736185651584448 0.12593354806073861 0.11527160067590077 0.1053483372825508 0.09613437884801415 0.08759923259236381 0.07971179514393092 0.07244078615619277 0.0657551260790652 0.0596242705957959 0.054018513732029275 0.04890927186154495 0.044269361809278374 0.04007328795780922 0.036297555472950195 0.03292102877072227 0.029925354405380383 0.02729546188214448 0.025020137139743874 0.023092619068502754 0.021511082207084226 0.02027872614544405 0.019403019013430518 0.018893574633123175 0.018893574633123175
          0.5170323508473921 0.5170323508473921 0.5131369240974945 0.5064891685933884 0.49727074857170944 0.4857215435499784 0.47212332495212844 0.45678274817355685 0.44001546440176864 0.4221325918945106 0.40343017645614576 0.3841817513333092 0.36463374127036396 0.3450032494375551 0.3254776909037157 0.30621575164740444 0.28734921912559314 0.26898531910453616 0.2512092838176925 0.23408695727992357 0.21766730986169538 0.20198478518662805 0.1870614394710071 0.17290885895444286 0.15952985765039132 0.14691996762870452 0.13506873939098077 0.12396087214557372 0.11357719407305716 0.10389551180983846 0.09489134692958406 0.08653857554430344 0.07880998552229582 0.07167776438226384 0.06511392976715631 0.05909071358552277 0.05358091046184795 0.04855820105702755 0.043997461043840884 0.03987506686971233 0.036169209496066786 0.03286022622073986 0.029930956869805805 0.027367121343070927 0.025157696537061867 0.02329523693580513 0.021776031467274654 0.020599926452155748 0.019769603864810102 0.019289165300423412 0.019289165300423412
          0.489308076580438 0.489308076580438 0.48587055763554154 0.47999310826276653 0.4718197229632522 0.461542337319463 0.4493891570745456 0.43561215443260237 0.42047497160450953 0.4042421637931428 0.38717034505102266 0.36950145643047116 0.35145810703037 0.33324076170470407 0.3150264575096469 0.2969687055026195 0.27919825328825515 0.2618244271504415 0.24493682587754453 0.22860719166629664 0.21289133120835163 0.19783099975450244 0.1834556921562484 0.16978430828130986 0.1568266769913868 0.14458493439663347 0.13305475962246074 0.12222647592112162 0.11208602750446718 0.10261584363696041 0.09379560180911034 0.08560290157170461 0.0780138601043004 0.07100363999097417 0.0645469190962913 0.058618311942128104 0.05319275160618732 0.04824584087103992 0.043754181051371986 0.03969568640352165 0.036049890873595086 0.03279825147755462 0.029924447740944885 0.02741466783813912 0.0252578576551554 0.02344588801185869 0.02197356985897585 0.020838426910595943 0.02004014201663489 0.01957966280831326 0.01957966280831326
          0.4670928766684368 0.4670928766684368 0.4640015846615087 0.45870800520973787 0.45132962624948797 0.44202429565834267 0.4309816201171088 0.418413528056412 0.40454486360887 0.38960471122704565 0.37381892728389216 0.3574041283740541 0.34056319262637164 0.32348218787674576 0.30632855152738403 0.2892503041847805 0.2723760712588715 0.25581570168078027 0.23966130052705187 0.2239885249582295 0.20885802538921838 0.19431694324824322 0.18040040166754312 0.1671329456443355 0.15452990389373045 0.14259865637320207 0.1313397999845296 0.12074821093473065 0.11081400626926356 0.10152340968725214 0.09285952831766445 0.08480304799346598 0.07733285494553882 0.07042659192236861 0.06406115664411789 0.058213150292949795 0.0528592834524492 0.047976746514175606 0.04354355098037107 0.03953884713151068 0.03594322189870623 0.032738978039788834 0.02991039128031111 0.027443935333190932 0.02532845534659003 0.023555259088119722 0.022118085115078893 0.021012905268792428 0.020237536534700402 0.01979108701569682 0.01979108701569682
          0.44980961044330964 0.44980961044330964 0.44697519614242087 0.44211563483803235 0.43532990103731994 0.4267518413521908 0.41654359697857746 0.4048882389886922 0.3919822397818976 0.3780283137580986 0.36322902376016974 0.34778139940695374 0.33187267447330776 0.3156771383106416 0.29935401680586293 0.28304625041068904 0.26688001512460147 0.250964830187372 0.2353941069554392 0.22024601137532362 0.2055845333913846 0.1914606776560867 0.17791370930644662 0.1649724054435709 0.15265627700390122 0.14097673700879668 0.129938199994067 0.1195391041134995 0.1097728523590206 0.10062867290064254 0.09209240103389345 0.08414718689192327 0.0767741341433314 0.06995287551604737 0.06366209127901107 0.05787997685211216 0.052584665535072725 0.047754611938382006 0.043368941005551095 0.03940776642106175 0.03585248052786906 0.03268601540989442 0.029893071309531047 0.02746030396033813 0.025376457021410646 0.02363242070993813 0.022221195375709532 0.021137743202259276 0.02037872742291579 0.019942169348137993 0.019942169348137993
          0.43700153563000016 0.43700153563000016 0.4343505303224721 0.42980129080785195 0.42344019930239196 0.41538467884626934 0.4057779250746637 0.3947829093069427 0.38257612008444564 0.3693414624434661 0.35526464893025445 0.3405283138216945 0.32530798000263533 0.30976891896991926 0.2940638751497589 0.27833157786162277 0.2626959361564918 0.2472657998448471 0.2321351701154987 0.21738375122082604 0.20307774738891637 0.18927082383375446 0.17600516566110735 0.1633125824614553 0.15121561880722234 0.13972864146313113 0.12885888285342867 0.11860742733286322 0.10897013228113361 0.09993848021316051 0.09150036119816002 0.08364078711748693 0.07634254084380893 0.06958676443834134 0.06335349105016683 0.05762212543921426 0.05237187797525124 0.047582156598240465 0.04323292053644808 0.03930499851409995 0.03578037266820213 0.03264242737115075 0.029876159622765668 0.02746834479555945 0.025407648765471205 0.023684675803937006 0.022291942623648718 0.02122377469036362 0.020476133041853004 0.020046398082607383 0.020046398082607383
          0.4283082697845468 0.4283082697845468 0.4257784155575205 0.42143434118387324 0.41535441160464304 0.4076455473151696 0.3984387567162361 0.3878839898960053 0.37614468418264024 0.36339234856847724 0.34980147808008966 0.3355450150009135 0.32079049494741707 0.30569694247081364 0.2904125196516488 0.27507288506302996 0.2598001896860302 0.2447026192023891 0.2298743859362718 0.2153960756670946 0.20133526187205203 0.18774731039475792 0.17467630931200068 0.16215607062994056 0.15021116157042888 0.138857933143006 0.12810552223124017 0.11795681052211979 0.10840932935327309 0.09945610408474229 0.09108643508530007 0.08328661502515808 0.07604058404165219 0.06933052562467484 0.06313740686062864 0.057441467055938986 0.05222265878436559 0.0474610450915184 0.04313715594926095 0.03923230607479864 0.035728874912792113 0.03261054795771304 0.029862516782878077 0.02747163340103336 0.02542651338140422 0.02371758221924831 0.022337061730494264 0.02127889860795246 0.020538645985900265 0.020113319697816517 0.020113319697816517
          0.42344823043883817 0.42344823043883817 0.4209849792882479 0.41675369492933195 0.4108284614438864 0.4033105582513305 0.3943244168673564 0.3840129269976853 0.37253241237201395 0.3600475863390528 0.34672675490250465 0.33273747477546295 0.3182428071695156 0.3033982432985567 0.2883493211950682 0.27322990885958326 0.2581610970359675 0.24325062530087238 0.22859275587002065 0.21426850826976182 0.2003461724733069 0.1868820261710652 0.17392119182764085 0.16149857978690765 0.14963987402577175 0.13836252666289547 0.12767673569594312 0.11758638755329956 0.10808995191410688 0.09918132096183722 0.09085058891990704 0.08308477051549584 0.07586845906851551 0.0691844263305442 0.06301416710638737 0.05733839215791584 0.05213747297157417 0.047391841702626905 0.043082349012297974 0.03919058160818761 0.03569914012080598 0.032591876582241885 0.02985408938138394 0.02747267243965004 0.025436214915374157 0.023735048566608512 0.022361242563287566 0.021308550391658854 0.02057232024983569 0.020149387544692594 0.020149387544692594
          0.42344823043883817 0.42344823043883817 0.4209849792882479 0.41675369492933195 0.4108284614438864 0.4033105582513305 0.3943244168673564 0.3840129269976853 0.37253241237201395 0.3600475863390528 0.34672675490250465 0.33273747477546295 0.3182428071695156 0.3033982432985567 0.2883493211950682 0.27322990885958326 0.2581610970359675 0.24325062530087238 0.22859275587002065 0.21426850826976182 0.2003461724733069 0.1868820261710652 0.17392119182764085 0.16149857978690765 0.14963987402577175 0.13836252666289547 0.12767673569594312 0.11758638755329956 0.10808995191410688 0.09918132096183722 0.09085058891990704 0.08308477051549584 0.07586845906851551 0.0691844263305442 0.06301416710638737 0.05733839215791584 0.05213747297157417 0.047391841702626905 0.043082349012297974 0.03919058160818761 0.03569914012080598 0.032591876582241885 0.02985408938138394 0.02747267243965004 0.025436214915374157 0.023735048566608512 0.022361242563287566 0.021308550391658854 0.02057232024983569 0.020149387544692594 0.020149387544692594
        </DataArray>
      </PointData>
      <CellData/>
    </Piece>
  </ImageData>
</VTKFile>
