<?xml version="1.0"?>
<VTKFile type="ImageData" version="0.1" byte_order="LittleEndian">
  <ImageData WholeExtent="0 50 0 25 0 0" Origin="0.0 0.0 0.0" Spacing="0.02 0.02 1.0">
    <Piece Extent="0 50 0 25 0 0">
      <PointData Scalars="Density">
        <DataArray type="Float32" Name="Density" format="ascii">
          10.0 8.207701611207531 6.9897132693995845 6.195084804298885 5.663548689855641 5.293438109392399 5.0250284185068566 4.823074821912556 4.666184940668569 4.540917692304395 4.4385294659620955 4.3531446817665636 4.280697344480279 4.218299281258544 4.163851219501602 4.115796215823353 4.072958995391508 4.034438598948628 3.9995349790762824 3.9676977449916344 3.938489682103566 3.9115603312606044 3.8866265474933033 3.8634579858144886 3.841866121186508 3.8216958411992423 3.8028189372878063 3.7851290148072905 3.7685374759903847 3.7529703230650497 3.7383655947229917 3.724671296308956 3.7118437182717403 3.6998460624443417 3.688647314243895 3.6782213127301118 3.6685459809129726 3.6596026866617715 3.6513757106854756 3.643851802795785 3.637019811369818 3.6308703738491386 3.6253956584316525 3.62058914897158 3.616445466605076 3.612960222844908 3.610129899898043 3.6079517548028157 3.606423744699438 3.6055444712061404 3.6055444712061404
          10.0 8.207701611207531 6.9897132693995845 6.195084804298885 5.663548689855641 5.293438109392399 5.0250284185068566 4.823074821912556 4.666184940668569 4.540917692304395 4.4385294659620955 4.3531446817665636 4.280697344480279 4.218299281258544 4.163851219501602 4.115796215823353 4.072958995391508 4.034438598948628 3.9995349790762824 3.9676977449916344 3.938489682103566 3.9115603312606044 3.8866265474933033 3.8634579858144886 3.841866121186508 3.8216958411992423 3.8028189372878063 3.7851290148072905 3.7685374759903847 3.7529703230650497 3.7383655947229917 3.724671296308956 3.7118437182717403 3.6998460624443417 3.688647314243895 3.6782213127301118 3.6685459809129726 3.6596026866617715 3.6513757106854756 3.643851802795785 3.637019811369818 3.6308703738491386 3.6253956584316525 3.62058914897158 3.616445466605076 3.612960222844908 3.610129899898043 3.6079517548028157 3.606423744699438 3.6055444712061404 3.6055444712061404
          10.0 7.775404813158963 6.661257530809035 5.987726933267321 5.535592891829679 5.212846129783912 4.972552833004896 4.787685462360253 4.64152216376822 4.523222478529655 4.425509463707088 4.343355996302097 4.273201777773907 4.212469380643366 4.159256185536737 4.112133177622292 4.070010445403062 4.032045330049892 3.9975784540862676 3.966088350205827 3.9371587377584736 3.9104545531614376 3.885704140156102 3.8626858418107446 3.841217783449104 3.8211499999532297 3.8023583071547367 3.784739485976864 3.768207465504871 3.752690273971107 3.738127585712536 3.724468734787818 3.7116710970437277 3.6996987653510174 3.6885214598034697 3.6781136275075976 3.6684536963252103 3.6595234543797557 3.651307532885285 3.6437929743288677 3.6369688715446964 3.6308260659910827 3.625356895751392 3.620554985555881 3.616415072560624 3.6129328627975656 3.610104914183673 3.6079285427935677 3.6064017497974072 3.6055231670812775 3.6055231670812775
          6.627841207024947 6.627841207024947 6.11195007791542 5.686506620621002 5.355656364042279 5.0989000138261344 4.897117249691296 4.735893457526051 4.6048498287749835 4.496561424735342 4.405682825119374 4.328322767923499 4.2616118118893835 4.203405627324835 4.1520806974291435 4.106392476468278 4.065375836139328 4.028274340376085 3.9944893618305777 3.963543006598605 3.935050762400618 3.9087010768157717 3.8842399343107803 3.861459081661618 3.8401869466937644 3.8202815672001575 3.8016250359827377 3.7841191008668824 3.7676816529469357 3.7522439040822886 3.7377481037892224 3.724145681637108 3.711395727833656 3.699463744502137 3.6883206150625583 3.6779417504402994 3.6683063794788158 3.659396957605489 3.651198672985267 3.6436990334576316 3.636887520756657 3.630755301061324 3.6252949829639753 3.6205004155925256 3.616366520963768 3.6128891557473533 3.610064998535526 3.607891459482835 3.6063666098363583 3.605489129444776 3.605489129444776
          5.880691664224354 5.880691664224354 5.642384613337687 5.390628352681272 5.164007729291337 4.970797601674995 4.808894537475208 4.673468554900028 4.559599829420909 4.4630531414951315 4.380399197705002 4.3089289642072774 4.246521030189899 4.191515713131396 4.14261056903373 4.098778251067307 4.059203463698815 4.023235035947605 3.9903495620412963 3.9601237561228384 3.932213333977227 3.9063367824887933 3.8822628002781303 3.8598005094666505 3.8387917720159765 3.8191051152915434 3.8006308968743934 3.783277430629293 3.76696786377956 3.7516376448785533 3.7372324598943796 3.723706541587482 3.7110212784475682 3.699144065465462 3.688047351252824 3.6777078454411534 3.6681058575901515 3.65922474452987 3.6510504475340455 3.6435711042591907 3.6367767232001107 3.630658910669921 3.62521064213488 3.6204260712160474 3.6163003708841797 3.6128296023780813 3.6100106082146937 3.6078409263667335 3.6063187232889518 3.6054427439988124 3.6054427439988124
          5.410043863936721 5.410043863936721 5.289497971187682 5.138555838622518 4.985666836644423 4.8437679416686965 4.717189712214406 4.606213558085013 4.509477557852132 4.425119909165242 4.351278083519061 4.286280690817136 4.22870021123215 4.177346933075647 4.131241262587022 4.089580914859351 4.05170980287266 4.017091004107833 3.985284237229153 3.955927497635689 3.928722246469984 3.903421522694927 3.879820412111661 3.857748397393622 3.837063202422245 3.8176458224113117 3.79939649606119 3.78223142800272 3.766080110884398 3.750883128628545 3.7365903474622413 3.723159420856148 3.7105545497211705 3.6987454510971585 3.687706497879113 3.67741599945042 3.6678555988786794 3.659009766922794 3.650865376764166 3.643411346313668 3.63663833731564 3.630538502392109 3.6251052727382707 3.6203331804678602 3.6162177106716715 3.612755179139931 3.6099426324456156 3.607777767720287 3.6062588700000755 3.605384765496262 3.605384765496262
          5.096378626139151 5.096378626139151 5.028821266147181 4.934513679481359 4.830203157044615 4.726361833361267 4.628441087073669 4.538717244011507 4.4577000143056145 4.385015869674455 4.3199099222476 4.261511972650558 4.20896786707463 4.161497693353945 4.118415920819535 4.079132759650239 4.043147018053704 4.010035772660726 3.9794434868541293 3.951071791733327 3.9246704100147882 3.9000293368716727 3.876972220218235 3.855350812470985 3.835040346072877 3.815935689386733 3.7979481540672357 3.781002842689194 3.765036442875937 3.7499953899771477 3.7358343340035045 3.7225148580203364 3.7100044047260687 3.698275375758911 3.6873043746593552 3.677071569617052 3.667560156365404 3.658755905038361 3.6506467776214055 3.643222604935331 3.6364748139854517 3.630396198070576 3.6249807233390596 3.6202233665553503 3.61611997974118 3.612667178114666 3.609862248395474 3.607703075097505 3.606188082910675 3.605316193696221 3.605316193696221
          4.874787168847779 4.874787168847779 4.83338673060755 4.771550097382436 4.698687205412063 4.622025707054092 4.546261152716676 4.474057574283746 4.406692899258064 4.34458966890317 4.287684714541623 4.235664592721952 4.188106662595555 4.144559244704191 4.104584437650438 4.0677789013788 4.033782089229668 4.002277621177189 3.9729911324946467 3.9456865045535157 3.920161536904374 3.8962436246883216 3.8737857210183515 3.8526627039733814 3.8327681805214544 3.814011714307526 3.796316442701028 3.779617040208163 3.763857984171993 3.748992081087972 3.734979215869429 3.7217852909171287 3.7093813263076583 3.697742696539811 3.6868484829539137 3.6766809241427234 3.667224949425929 3.6584677828061696 3.650398606812442 3.6430082773168384 3.636289081828658 3.630234534967379 3.6248392058287724 3.6200985728169965 3.6160089022464126 3.6125671476419345 3.6097708672049906 3.6076181573794 3.6061076008615083 3.605238227763278 3.605238227763278
          4.710807502393028 4.710807502393028 4.683552120247486 4.641079976562338 4.588732491724387 4.531251275430762 4.472209190239563 4.41400365199692 4.3580829238546634 4.305214404512503 4.255714681495497 4.20962118933835 4.166810488523136 4.127075446644256 4.09017341629375 4.055855000513889 4.023880296077948 3.994027297107397 3.966095530631403 3.9399068890457745 3.9153048912303015 3.8921531297173746 3.870333359590029 3.849743495511671 3.8302956660782757 3.811914403130401 3.794535000770825 3.778102053779437 3.7625681710600967 3.747892852396882 3.7340415134557716 3.7209846429757194 3.7086970764239617 3.697157371418686 3.686347271572249 3.6762512468601165 3.666856100050217 3.65815063006864 3.650125344400095 3.6427722137153005 3.6360844628844644 3.630056393384335 3.6246832328472998 3.6199610081466633 3.6158864389750893 3.612456849364568 3.6096700950271607 3.607524504775684 3.606018834621593 3.605152233451456 3.605152233451456
          4.58513881887709 4.58513881887709 4.5661526009515745 4.535743433602476 4.49703987076764 4.453124991388573 4.40658703007907 4.359374951552687 4.3128346761949725 4.26782129781995 4.224824893380181 4.184081170859436 4.1456580620977395 4.109518886536927 4.075566228507576 4.043671258193964 4.013692635093479 3.985488223218492 3.958921983035342 3.93386770483271 3.910210723863014 3.8878483826828356 3.8666897458322085 3.8466548948994084 3.8276740133001375 3.809686391456876 3.7926394315243224 3.7764876974016706 3.761192034400681 3.7467187694948416 3.7330389948183513 3.7201279321944907 3.7079643737487604 3.696530192311722 3.685809914821543 3.6757903519594013 3.666460277574067 3.6578101519354806 3.6498318834133006 3.6425186237510334 3.635864592667464 3.6298649280467754 3.6245155584683357 3.619813095273361 3.6157547417692664 3.6123382175357897 3.6095616961237926 3.6074237547322516 3.6059233347159223 3.6050597120200694 3.6050597120200694
          4.486270168961345 4.486270168961345 4.4724324944180385 4.449855420375074 4.4204423257072785 4.386217775505321 4.349025607635861 4.310379042825507 4.2714259962543615 4.232980758984767 4.195583765953179 4.159566070713746 4.125106986524441 4.092280777792794 4.061092204240887 4.031502415226713 4.003447172336923 3.9768492859867464 3.951626843250786 3.9276984561129815 3.9049864470155446 3.8834186356518003 3.8629291975370736 3.843458922226496 3.824955096331835 3.8073711637985577 3.7906662651280376 3.7748047221358485 3.759755510811643 3.745491748554625 3.731990211129056 3.7192308874477793 3.707196575583895 3.695872520422988 3.685246091542359 3.6753064988550608 3.6660445430219593 3.6574523974342683 3.6495234185801446 3.6422519817494337 3.6356333392454268 3.6296634985253546 3.624339117958809 3.6196574181606156 3.6156161071133663 3.6122133175398847 3.6094475552155516 3.607317657124276 3.605822758560846 3.6049622684682454 3.6049622684682454
          4.406939548899616 4.406939548899616 4.396472487952965 4.379170939500124 4.35623806912741 4.32902808831398 4.29885391490773 4.266867421724604 4.234007097440104 4.200993319146133 4.168350629272528 4.136441419527994 4.105501292209617 4.07567103205041 4.047023181475721 4.019582948314468 3.9933440147457135 3.9682801233243152 3.9443533420593004 3.9215198095668686 3.89973361836495 3.87894935168717 3.8591236646677936 3.8402161995292703 3.8221900456237226 3.805011895606085 3.78865200487133 3.773084029163442 3.758284792015659 3.7442340170739294 3.730914048597726 3.7183095751821504 3.7064073660128667 3.695196025028502 3.684665765701088 3.674808207377849 3.66561619298838 3.6570836272177227 3.649205333842496 3.641976930727205 3.635394720913955 3.6294555982634407 3.6241569661855255 3.619496668111472 3.615472928491964 3.6120843032449734 3.6093296387196094 3.6072080383819065 3.6057188365644652 3.604861578752931 3.604861578752931
          4.342345666485157 4.342345666485157 4.334175450288223 4.3205414388730015 4.302232092149952 4.28017341077185 4.255307982409768 4.228507710043914 4.200524301587729 4.171971011331761 4.143325603018864 4.114945223937809 4.087086267077488 4.059924820234708 4.03357530897249 4.008106305346622 3.983553293856686 3.9599286170269385 3.937229007530844 3.915441157049311 3.89454574330656 3.8745202775923455 3.855341068539177 3.836984535382905 3.8194280501096616 3.8026504439146667 3.78663227866702 3.771355957288305 3.7568057266511294 3.742967611422123 3.7298293060445538 3.717380043827654 3.7056104561332983 3.694512430347396 3.6840789722538965 3.6743040762635943 3.665182605441865 3.656710182247495 3.648883090204735 3.641698186284808 3.635152823499835 3.6292447830598746 3.62397221537489 3.6193335891716343 3.6153276480211836 3.6119533736231664 3.6092099552582178 3.6070967648944636 3.6056133375128967 3.6047593562977025 3.6047593562977025
          4.289189509907746 4.289189509907746 4.282635533171333 4.271620005149168 4.256677046179792 4.238454732217826 4.217638640153415 4.194890549408285 4.170807787741623 4.145902154752814 4.12059405413024 4.095216707338439 4.070025979760782 4.045212524359561 4.020914112141314 3.9972269485459186 3.9742154251426838 3.951920164437691 3.930364444796332 3.9095592020051004 3.889506840357706 3.8702040818255776 3.8516440577377526 3.833817815919307 3.8167153842883756 3.8003265028642126 3.7846411113204743 3.7696496588397688 3.7553432867460157 3.7417139216442004 3.7287543069679296 3.7164579933478032 3.704819302568534 3.6938332756646433 3.6834956125793528 3.6738026085150812 3.6647510904316727 3.6563383559426104 3.6485621160001456 3.6414204421564613 3.6349117187720874 3.629034600263389 3.6237879733006375 3.619170923758734 3.615182708163759 3.611822729355028 3.609090516083533 3.6069857062854807 3.605508033799045 3.6046573183289286 3.6046573183289286
          4.24513124819343 4.24513124819343 4.239744259332096 4.2306399447978515 4.218191335523814 4.202862732212953 4.185160702802614 4.165591554472163 4.144629910430724 4.122699233323594 4.100162718745976 4.077321941254388 4.054420559890723 4.031650822274512 4.00916120541876 3.9870641017129436 3.965442915659625 3.944358264172691 3.9238531864666735 3.9039573956167057 3.884690669240013 3.8660655030724733 3.848089154337691 3.8307651924832413 3.814094659918552 3.7980769288893867 3.782710324783947 3.767992572051332 3.753921106904781 3.7404932910827595 3.7277065529632933 3.715558476007738 3.704046849571813 3.693169693304957 3.6829252634364726 3.6733120470276504 3.6643287485964677 3.655974272270367 3.6482477016937436 3.641148279232626 3.634675385519904 3.6288285200239825 3.623607283066957 3.6190113595385816 3.6150405044293215 3.6116945302244567 3.6089732961503675 3.606876699235153 3.6054046671326394 3.6045571526567683 3.6045571526567683
          4.2084671519728305 4.2084671519728305 4.203940148232126 4.196255925056018 4.185682518035727 4.172560396044317 4.157270477532435 4.1402046118495495 4.121741940530308 4.102232434241145 4.081987299120953 4.061275039344795 4.040321646774434 4.019313458348364 3.9984014838725273 3.9777063237867534 3.957323089976363 3.937325978917813 3.9177723188683933 3.8987060286595208 3.8801604971437085 3.8621609318959473 3.8447262438918814 3.8278705395943353 3.811604288859163 3.7959352301131744 3.780869065749034 3.7664099920327576 3.752561099786939 3.739324675045731 3.726702422879073 3.714695632620412 3.7033052987029023 3.692532208085441 3.682377002700974 3.67284022336289 3.6639223400137775 3.6556237720033917 3.6479449011639753 3.6408860797500826 3.63444763477789 3.628629869897079 3.623433065626114 3.618857478555863 3.6149033399584924 3.61157085411428 3.608860196577916 3.6067715125391837 3.605304915384886 3.604460485534051 3.604460485534051
          4.177929241176875 4.177929241176875 4.1740459637311496 4.167431545860252 4.158283867797081 4.146858475715818 4.13344727567028 4.118357882911659 4.101896013770347 4.08435213965435 4.065992612585344 4.047054791167942 4.027745353450976 4.00824090133301 3.9886900406888803 3.9692162770495276 3.949921239806282 3.930887905290494 3.9121836163224906 3.893862790301281 3.87596927309633 3.8585383377524387 3.8415983514106995 3.8251721461848014 3.8092781341922732 3.7939312065974367 3.7791434535121224 3.76492473733044 3.7512831474239814 3.7382253596071977 3.725756919668313 3.7138824666649652 3.7026059086292595 3.6919305607856625 3.6818592543040354 3.6723944219259197 3.663538165452154 3.6552923090055938 3.647658441132707 3.6406379481384015 3.634232040522952 3.628441773978426 3.6232680660803487 3.618711709558897 3.61477338283754 3.611453658373067 3.6087530092101217 3.606671814067792 3.6052103611996387 3.604368851206857 3.604368851206857
          4.152556554537227 4.152556554537227 4.1491604517016905 4.143359741349171 4.135304443348817 4.125190964369393 4.113247590179087 4.099719852603932 4.084857405575914 4.068903405452659 4.052086769825192 4.034617213003537 4.016682664208373 3.998448546580935 3.9800583858342553 3.9616352783948265 3.943283841180479 3.925092362405172 3.907134960142225 3.8894736263961716 3.8721600880286053 3.8552374537964327 3.8387416418998233 3.822702597883908 3.807145321245955 3.7920907229009355 3.777556336446101 3.763556905156797 3.7501048646771338 3.7372107389869784 3.72488346477077 3.7131306569793257 3.70195882626451 3.6913735571185367 3.6813796539690418 3.6719812611518186 3.663181961578873 3.654984858010862 3.647392640100036 3.6404076397656167 3.6340318769733275 3.6282670975940703 3.6231148046954553 3.618576284359764 3.6146526269105186 3.6113447442574795 3.6086533839285586 3.606579140240144 3.605122462959515 3.6042836637298095 3.6042836637298095
          4.1316098907218795 4.1316098907218795 4.128584725209291 4.1234060383391204 4.116190663410632 4.107093321656852 4.096296507427947 4.083999942572369 4.070410714902806 4.055734866524428 4.04017082078755 4.023904715643702 4.007107485511877 3.989933406698204 3.9725197753167283 3.954987396386506 3.9374416044153504 3.9199735907463342 3.902661868887829 3.885573759011659 3.8687668137702556 3.852290139050745 3.8361855861309744 3.8204888074057233 3.8052301780057767 3.7904355916959673 3.7761271426243654 3.762323705749986 3.749041428804415 3.736294147944032 3.7240937381667534 3.71245040832504 3.7013729493057053 3.690868942748592 3.6809449365834452 3.6716065926950465 3.6628588111833604 3.6547058349617214 3.647151337820928 3.640198498567913 3.633850063411183 3.6281083983995006 3.6229755334138036 3.6184531989555335 3.6145428567588445 3.6112457250721564 3.608562799300203 3.606494868565843 3.605042528636927 3.6042061915636454 3.6042061915636454
          4.114513855285045 4.114513855285045 4.111771191197812 4.107067718507386 4.100497007462462 4.092184173953781 4.082278639487201 4.0709463682869 4.058362347683283 4.0447038876375 4.030145087369787 4.014852604551796 3.9989826965579 3.9826793941906256 3.966073611851504 3.9492829825991445 3.932412218319472 3.9155538222173947 3.8987890138514874 3.8821887599105454 3.865814833435174 3.8497208486988987 3.833953238203569 3.81855215263674 3.803552274931081 3.7889835465883444 3.774871808963449 3.761239364916337 3.7481054676688426 3.7354867442641693 3.7233975610244365 3.7118503380561747 3.7008558193170926 3.69042330413187 3.680560845396237 3.6712754190776407 3.6625730690305365 3.6544590306062443 3.646937836055466 3.640013404295463 3.6336891172403067 3.6279678845670396 3.6228521985076987 3.6183441800119045 3.6144456174118416 3.611157998536487 3.60848253706043 3.606420193730877 3.6049716929911595 3.604137535406879 3.604137535406879
          4.100816586219471 4.100816586219471 4.098287474901215 4.09394412039136 4.087863727372385 4.080150367164117 4.070929634183575 4.0603427772914396 4.048540841628223 4.035679253170303 4.0219131402539805 4.007393546376479 3.992264569200854 3.976661372823509 3.9607089655283 3.9445216090143 3.928202720345986 3.9118451372480676 3.895531634527372 3.8793355996129724 3.8633217953137624 3.847547156073963 3.832061579410594 3.8169086866377584 3.802126536595654 3.7877482832732157 3.7738027733724855 3.7603150834325287 3.747306998486525 3.7347974356822764 3.7228028171055083 3.7113373964022003 3.700413543847556 3.6900419943630123 3.6802320627162 3.670991829806339 3.6623283035761527 3.654247557725518 3.6467548510472243 3.639854729870671 3.6335511157897806 3.627847380569123 3.622746409866828 3.618250657183475 3.614362189240696 3.611082723809426 3.6084136608432273 3.606356107624264 3.6049108984965232 3.6040786096404593 3.6040786096404593
          4.090161240408083 4.090161240408083 4.087790540310426 4.083714827028105 4.077999877059424 4.070734947069333 4.062028680301626 4.052004517782802 4.040795999427229 4.028542284381864 4.015384135641621 4.001460521103303 3.9869058974767055 3.971848174305822 3.9564073063817204 3.940694433335318 3.9248114719511333 3.908851065535262 3.892896801372547 3.877023618441999 3.861298340509099 3.8457802827019023 3.83052189163085 3.8155693894846685 3.8009634011444446 3.7867395502494166 3.772929015490605 3.7595590424268277 3.7466534090477084 3.734232845371238 3.722315408754069 3.7109168174744114 3.7000507456528045 3.689729082810274 3.6799621614074294 3.670758955623442 3.6621272544663848 3.6540738120891643 3.6466044779423887 3.639724309143236 3.633437667189018 3.6277483009028915 3.6226594172711506 3.6181737416191213 3.614293568376515 3.611020803502873 3.608356999478657 3.606303383616142 3.604860880305653 3.6040301276868165 3.6040301276868165
          4.0822655021990215 4.0822655021990215 4.080007888583773 4.076123507812763 4.0706703645989 4.063727579929325 4.0553921060778935 4.045774982419798 4.034997420652678 4.023186978497032 4.010474028313194 3.996988663798227 3.982858125004171 3.9682047670657346 3.9531445553490907 3.9377860402945544 3.922229747976295 3.906567915138553 3.8908844975937344 3.875255385903945 3.8597487701258077 3.8444256044832077 3.8293401320267657 3.8145404379353387 3.800069007723665 3.7859632730788566 3.7722561333461067 3.758976444899532 3.74614947389506 3.7337973103532116 3.7219392433048166 3.710592097985069 3.699770536897158 3.6894873270843487 3.6797535762295523 3.6705789403084115 3.661971805506825 3.653939447015154 3.6464881671589975 3.6396234151417257 3.6333498904730526 3.6276716319516753 3.6225920938659573 3.618114210879747 3.6142404528833505 3.610972870913862 3.6083131350846394 3.60626256531 3.6048221554671818 3.603992591504279 3.603992591504279
          4.076906696257402 4.076906696257402 4.074723773079804 4.070965874203468 4.065686056848424 4.058956961274903 4.0508680201624205 4.041522239661472 4.031032780936996 4.019519556699932 4.007106022667963 3.993916298156548 3.980072701353529 3.9656937396410417 3.950892557634834 3.9357758172515123 3.9204429651963535 3.90498583275303 3.88948850902345 3.8740274300160316 3.858671630534093 3.8434831122614956 3.828517288691658 3.813823474825978 3.7994453963777586 3.7854216992735457 3.771786445419899 3.7585695849832055 3.745797398865352 3.7334929077385284 3.7216762460345807 3.7103650007769517 3.699574516198634 3.689318165799194 3.679607593936406 3.670452929288714 3.6618629726169853 3.65384536123995 3.646406712550504 3.639552748764667 3.633288404930385 3.627617922043322 3.6225449269308605 3.6180725003807694 3.614203234811341 3.6109392826080136 3.6082823960884296 3.6062339599029722 3.6047950165275857 3.603966285352521 3.603966285352521
          4.073910913727721 4.073910913727721 4.071769048632452 4.068080678206588 4.062896218151679 4.056284828119779 4.048331883140201 4.039136033912991 4.028806053946948 4.017457665140377 4.005210507306649 3.992185380098209 3.978501844575005 3.964276231779434 3.949620070961188 3.934638922666788 3.9194315824081265 3.904089608598487 3.8886971227737663 3.87333082938555 3.858060205222893 3.8429478135024984 3.8280497038093544 3.8134158655784005 3.7990907091310193 3.7851135540724377 3.7715191099317256 3.758337938215772 3.745596888562382 3.733319504473466 3.7215263962712792 3.7102355805430074 3.699462786514954 3.689221730614088 3.679524361008563 3.6703810742352805 3.6618009061763046 3.6537916996804882 3.646360251077346 3.639512437723456 3.633253328578542 3.627587279643733 3.6225180159195824 3.6180487013638647 3.614181998154363 3.6109201163928795 3.6082648552256216 3.606217636202295 3.60477952954786 3.603951273848872 3.603951273848872
          4.073910913727721 4.073910913727721 4.071769048632452 4.068080678206588 4.062896218151679 4.056284828119779 4.048331883140201 4.039136033912991 4.028806053946948 4.017457665140377 4.005210507306649 3.992185380098209 3.978501844575005 3.964276231779434 3.949620070961188 3.934638922666788 3.9194315824081265 3.904089608598487 3.8886971227737663 3.87333082938555 3.858060205222893 3.8429478135024984 3.8280497038093544 3.8134158655784005 3.7990907091310193 3.7851135540724377 3.7715191099317256 3.758337938215772 3.745596888562382 3.733319504473466 3.7215263962712792 3.7102355805430074 3.699462786514954 3.689221730614088 3.679524361008563 3.6703810742352805 3.6618009061763046 3.6537916996804882 3.646360251077346 3.639512437723456 3.633253328578542 3.627587279643733 3.6225180159195824 3.6180487013638647 3.614181998154363 3.6109201163928795 3.6082648552256216 3.606217636202295 3.60477952954786 3.603951273848872 3.603951273848872
        </DataArray>
      </PointData>
      <CellData/>
    </Piece>
  </ImageData>
</VTKFile>
