<?xml version="1.0"?>
<VTKFile type="ImageData" version="0.1" byte_order="LittleEndian">
  <ImageData WholeExtent="0 50 0 25 0 0" Origin="0.0 0.0 0.0" Spacing="0.02 0.02 1.0">
    <Piece Extent="0 50 0 25 0 0">
      <PointData Scalars="Density">
        <DataArray type="Float32" Name="Density" format="ascii">
          10.0 7.105457679759915 5.1389711974537065 3.8568995393637047 3.0004482994027906 2.405430459629378 1.97538290379872 1.653370922353913 1.4048270429685172 1.2080215791171804 1.048808124084901 0.917669270590553 0.8080074320801125 0.715124742773486 0.6355951430394521 0.566866365785723 0.5070006735937198 0.4545016931006408 0.40819608183759903 0.3671509681150283 0.3306152539036083 0.2979771644237401 0.2687330684873029 0.24246425352090784 0.2188194044435576 0.19750123243451945 0.1782561637025619 0.1608663125870939 0.1451431793889359 0.1309226640624168 0.11806109348633677 0.10643203636133869 0.09592373510052096 0.08643702462672061 0.07788363802761568 0.07018482149870321 0.0632701979888846 0.057076831914449025 0.05154845726866951 0.04663483917957901 0.04229124500687421 0.038478005824116916 0.03516015290415577 0.03230711683841152 0.029892479343998368 0.02789376977598122 0.02629229996502486 0.025073032321394833 0.024224477253389002 0.023738616951431465 0.023738616951431465
          10.0 7.105457679759915 5.1389711974537065 3.8568995393637047 3.0004482994027906 2.405430459629378 1.97538290379872 1.653370922353913 1.4048270429685172 1.2080215791171804 1.048808124084901 0.917669270590553 0.8080074320801125 0.715124742773486 0.6355951430394521 0.566866365785723 0.5070006735937198 0.4545016931006408 0.40819608183759903 0.3671509681150283 0.3306152539036083 0.2979771644237401 0.2687330684873029 0.24246425352090784 0.2188194044435576 0.19750123243451945 0.1782561637025619 0.1608663125870939 0.1451431793889359 0.1309226640624168 0.11806109348633677 0.10643203636133869 0.09592373510052096 0.08643702462672061 0.07788363802761568 0.07018482149870321 0.0632701979888846 0.057076831914449025 0.05154845726866951 0.04663483917957901 0.04229124500687421 0.038478005824116916 0.03516015290415577 0.03230711683841152 0.029892479343998368 0.02789376977598122 0.02629229996502486 0.025073032321394833 0.024224477253389002 0.023738616951431465 0.023738616951431465
          10.0 6.407054653282099 4.608270607217001 3.5218131962730426 2.7936366258527543 2.275143761994753 1.8905292568189809 1.5961309733753275 1.3649258151965984 1.1793851900395727 1.0277321280442635 0.9018200218333443 0.7958683723415831 0.7056814493161552 0.628150997099576 0.5609315113211177 0.5022232382151282 0.4506240552243826 0.4050263781051875 0.36454410836063045 0.32846000702771666 0.29618720540449633 0.2672406621306555 0.24121572609934344 0.2177718485509402 0.19662007604814608 0.1775133538333675 0.1602389420225237 0.14461243699156426 0.13047302417196507 0.11767968400099504 0.10610814174966438 0.09564840231207151 0.08620274819874439 0.07768410667122085 0.07001471279466362 0.06312501101045156 0.05695274995309806 0.05144223459925934 0.04654370712630622 0.04221283357607228 0.038410277937120006 0.03510134885296233 0.03225570704237549 0.029847123839385266 0.0278532831460492 0.0262556206351894 0.025039195318029825 0.02419258966708435 0.02370783541840496 0.02370783541840496
          4.5531858975869905 4.5531858975869905 3.7207400355963354 3.0350347831299733 2.5027950818365676 2.090923967192733 1.7685402222913358 1.512354740323371 1.3055905290461924 1.136236500820933 0.9956361109645564 0.8774778971036727 0.7770976273059166 0.6909994198609308 0.6165260687409557 0.5516302169839699 0.494713815268257 0.44451413335374057 0.4000218133055247 0.36042122149638073 0.3250465025245663 0.29334882323285405 0.2648716870708785 0.23923213696791995 0.216106303275492 0.1952181925139744 0.17633091807883966 0.1592397887776303 0.14376682363668744 0.12975637096231646 0.11707158909925988 0.1055916045344918 0.09520920603987175 0.08582896567656398 0.07736570168034837 0.06974321662618592 0.06289325834719853 0.05675466195088024 0.051272639729716955 0.04639819238850923 0.04208762023867172 0.03830211716288231 0.03500743347397969 0.032173596463690966 0.029774679600175862 0.027788613097135005 0.026197030026294643 0.024985143346873837 0.024141650234325265 0.023658660947881507 0.023658660947881507
          3.3460057468434465 3.3460057468434465 2.9619507009009975 2.556829940432743 2.1929855148825768 1.8837932168103053 1.6258568144268333 1.4113686070104274 1.232369584018968 1.0820013645073066 0.9547029407108227 0.8460729013189738 0.7526556581070234 0.6717384771805788 0.6011830298458202 0.5392930071133408 0.48471255643640554 0.43634912589368535 0.39331498367854084 0.35488280671119155 0.3204518070902187 0.28952174896269944 0.2616728906652887 0.23655039787476617 0.21385215047447448 0.1933191422863655 0.1747278753083797 0.1578842987021617 0.14261895225853632 0.1287830551414104 0.11624534110324888 0.10488948664268631 0.09461201274971501 0.08532056685744234 0.07693251149778867 0.0693737614781072 0.06257782328331538 0.05648499969481377 0.05104172991988137 0.04620004130375674 0.04191709329716988 0.03815479803634089 0.034879504859729335 0.03206173848907797 0.02967598255991276 0.0277005017910701 0.02611719740693553 0.02491149152801755 0.024072237171831944 0.023591651293597797 0.023591651293597797
          2.585416700171626 2.585416700171626 2.3915988590774053 2.14935227040257 1.904640160455959 1.6783645838461405 1.477519890084186 1.3025539168872662 1.151254554840743 1.0205973597603946 0.907552409796167 0.8093947245721334 0.7237898713146367 0.6487845432244104 0.5827621596231368 0.5243901679610862 0.4725700685229376 0.4263940118387696 0.3851086715677894 0.3480858280725829 0.3147986861051044 0.2848029088777003 0.2577214540598947 0.23323244260203302 0.2110594351822951 0.19096361728492792 0.1727374984782492 0.15619981550072146 0.14119139519284887 0.12757178535647554 0.11521650222812928 0.10401477489996111 0.09386769171139536 0.08468667294244375 0.07639220928939248 0.06891281753815186 0.06218417429370521 0.056148396130588266 0.05075344052466138 0.04595260673757022 0.04170411970423393 0.03797078311545811 0.034719690443978594 0.031921984751486714 0.029552659829835907 0.02759039664578026 0.026017430234575048 0.02481944317154291 0.02398548258142428 0.023507898355289783 0.023507898355289783
          2.0783911519593485 2.0783911519593485 1.9701826285182154 1.819444125904861 1.6532317970495922 1.4884626855986556 1.3339394297814742 1.1933311283654695 1.0674484551797392 0.9556708909176508 0.8567577985086222 0.7692785639591116 0.691825146617475 0.6231064230516927 0.5619810324294413 0.5074598648961415 0.45869480072272506 0.4149622902598727 0.3756460334608724 0.34022072292420613 0.3082376272965192 0.27931219957757164 0.25311361740965543 0.22935604830294523 0.20779140066935836 0.18820332841665527 0.17040228024632165 0.1542214133510861 0.13951321946844636 0.12614673684988115 0.11400524385739867 0.10298434856789014 0.09299040425652037 0.08393919336729974 0.07575483299870932 0.06836886343604012 0.06171948819820096 0.05575093972772853 0.050412949479671704 0.045660304954250455 0.04145247932851 0.03775332190165942 0.03453079968059822 0.03175678217960116 0.029406862958739743 0.02746021263434241 0.025899459106722176 0.024710591602853944 0.023882885855898657 0.023408848366055543 0.023408848366055543
          1.7200977558201194 1.7200977558201194 1.6541548379642241 1.5558890616184544 1.4405012589914452 1.319664847424713 1.2009595858323072 1.0886796036993163 0.9848758103358789 0.8902132861372802 0.804568665887927 0.7274107316385058 0.658028601353506 0.5956615112196353 0.5395682690266068 0.4890611061006289 0.4435192455112581 0.402391383099891 0.36519246850746934 0.33149786704202544 0.30093661371274427 0.27318467063235974 0.24795863928028633 0.22501012046075228 0.20412077359381453 0.1850980535996086 0.16777156882041072 0.15198999005316552 0.13761843890598757 0.12453628764973032 0.11263530929743913 0.10181812404533797 0.09199689552028244 0.08309223704867513 0.07503229420560967 0.06775197517959826 0.06119230503058304 0.055299883793873274 0.05002643166897455 0.045328407309059474 0.04116668756775721 0.037506299030942124 0.03431619331989352 0.031569059548251704 0.029241168491139134 0.027312244016974935 0.025765358171969906 0.024586847020772597 0.023766244957427386 0.023296235729097958 0.023296235729097958
          1.4548782657021213 1.4548782657021213 1.4117956092290789 1.344827977518231 1.2626020264544349 1.1727732956369967 1.0811063477432015 0.991463441946892 0.9061698667763326 0.826447319016964 0.7527856515589737 0.6852203667913203 0.6235239211813415 0.5673306587564315 0.516214899117826 0.4697376671315133 0.42747319212613205 0.38902273960854067 0.35402073692749836 0.3221363668319613 0.2930726184369869 0.26656401871033 0.24237378008167987 0.2202907939205424 0.20012671021958642 0.18171322820446825 0.16489965330978906 0.14955073552409354 0.135544781458818 0.12277202068991938 0.11113320161548762 0.10053839057153906 0.09090594858912937 0.08216166194465395 0.07423800494206172 0.06707351581240455 0.06061226901955588 0.054803429512814625 0.049600876516442675 0.04496288627573694 0.040851864791125514 0.03723412297859531 0.034079687914259395 0.031362144872817556 0.029058505774045916 0.02714910042753431 0.025617487631760527 0.02445038375601276 0.02363760692811875 0.023172035381729655 0.023172035381729655
          1.2515605631094229 1.2515605631094229 1.2218447017748777 1.1743779261301595 1.1142108335253615 1.0463182903291144 0.9748729663903128 0.9030116395877867 0.8328935084065575 0.7658814194140563 0.7027451669439286 0.6438403778902954 0.5892485862821495 0.5388794889019834 0.4925420612243916 0.4499921670222103 0.41096334293358167 0.3751859718342195 0.34239866377221717 0.31235453247540196 0.2848242086425525 0.25959682567312425 0.23647979304204475 0.21529788644740738 0.1958919920835902 0.1781177153688967 0.16184398123556742 0.14695169918299056 0.1333325318440069 0.12088778418457963 0.1095274172173957 0.09916918231706665 0.08973786793258749 0.08116464842029085 0.07338652402773077 0.06634584119801934 0.059989882980522734 0.05427052020023832 0.04914391501113134 0.044570269449630516 0.040513612560660606 0.03694162056057548 0.03382546531468188 0.031139687136748688 0.028862088564974995 0.02697364633795256 0.025458439291948767 0.02430359033527776 0.023499221035138528 0.023038417685844397 0.023038417685844397
          1.0915535112992836 1.0915535112992836 1.0701620046820435 1.0353593540189916 0.9902159863314179 0.9379957082846166 0.8816676162181162 0.8236636752314686 0.7658225138817846 0.7094405473921299 0.6553685663955398 0.6041159997284968 0.5559441877845308 0.5109420010452784 0.4690834727058083 0.43026985624353564 0.3943592979363392 0.361187166893007 0.3305795879195701 0.3023621610120837 0.2763653471598908 0.2524275917773843 0.23039694477548023 0.21013170590411653 0.1915004581314609 0.17438173446189603 0.15866348163860816 0.14424242756365774 0.13102342054634902 0.11891878227145294 0.10784769882851086 0.09773566256390641 0.08851397002441248 0.0801192765460614 0.07249320520078659 0.06558200622216927 0.05933626226306009 0.053710634599418404 0.0486636454875558 0.04415749217175666 0.0401578884361536 0.03663393003956585 0.0335579808266231 0.03090557674920185 0.02865534544516979 0.026788939399580183 0.025290981054251045 0.024149018535654387 0.02335349094083406 0.02289770236063591 0.02289770236063591
          0.9631281564925439 0.9631281564925439 0.9471877649897444 0.9209175123614743 0.8862559471564416 0.8453831164553072 0.8004096053769999 0.7531828857102143 0.705202639673199 0.6576130781936169 0.6112389567690262 0.5666400794093805 0.5241685591087757 0.48402063732877854 0.44627981013080065 0.41095081564867536 0.3779853961034612 0.3473012450925933 0.3187955941531268 0.2923547302354615 0.2678605052642883 0.24519466877066665 0.22424165362428203 0.20489028152946545 0.1870347278008507 0.17057498879961788 0.15541702419628717 0.1414726942698563 0.12865957500265696 0.11690070701216103 0.10612431548113574 0.09626352503647707 0.08725608438346594 0.07904410925716696 0.07157384805969631 0.06479547180175665 0.05866288822259943 0.0531335789129606 0.04816845768918176 0.043731748207099255 0.03979087875116665 0.03631639221070216 0.03328186940786485 0.03066386413465549 0.028441848464673698 0.026598167113913537 0.025117999824033017 0.023989330926114407 0.023202925410845066 0.022752310982352204 0.022752310982352204
          0.8585296261138091 0.8585296261138091 0.846304809978121 0.8259678532488296 0.7987868275724228 0.7662493795184026 0.7298671736632716 0.6910347748431294 0.6509495813703551 0.6105823022225407 0.5706817740201969 0.5317990704551891 0.494319711716316 0.4584968552570242 0.424481594034899 0.3923486948042565 0.36211743427632825 0.33376788825389736 0.30725332778714737 0.28250944696173635 0.25946110096672065 0.2380271379016641 0.21812380053982033 0.19966707342336107 0.1825742638681066 0.16676503454512673 0.15216204932373253 0.13869135090913823 0.12628255613230588 0.11486893034639768 0.1043873843668479 0.09477842422322187 0.0859860744581113 0.07795778887517478 0.07064435779333927 0.06399981747204192 0.05798136503431141 0.05254928063508209 0.04766685758389172 0.04330034047471499 0.03941887098499782 0.03599444079685113 0.03300185100528376 0.030418677368125244 0.028225240789487807 0.026404582492183117 0.024942443410237776 0.02382724741134265 0.023050088035179432 0.022604718504193717 0.022604718504193717
          0.7724292172281613 0.7724292172281613 0.7628197165945079 0.74672010175392 0.7249871613857601 0.6986590657822935 0.6688317548149806 0.6365598279845721 0.6027908186355257 0.5683311380709251 0.5338366335879154 0.49981947474359567 0.46666414315159577 0.43464719681616415 0.4039573608495168 0.3747139991080827 0.3469830725246044 0.32079035045880133 0.29613201231493863 0.27298295414254253 0.251303174103685 0.23104260403569998 0.21214471560936798 0.19454917894389984 0.17819380010306246 0.16301591712611374 0.14895339429704757 0.1359453215719153 0.12393249991894695 0.11285777286643013 0.10266624880587666 0.09330544663233144 0.0847253883109533 0.07687865526740846 0.06972042056746068 0.06320846525060489 0.05730318458088966 0.051967588119292085 0.04716729621114779 0.04287053457172513 0.0390481280323003 0.03567349409536712 0.032722636679627604 0.03017414026807657 0.028009164572960776 0.026211439776002307 0.02476726237425753 0.0236654916497253 0.02289754677654608 0.02245740457841456 0.02245740457841456
          0.7010472745785283 0.7010472745785283 0.6933266888752057 0.6803207790071608 0.6626257876970544 0.6409826128613842 0.6161975849577739 0.589073716934554 0.5603599189431717 0.5307195452037501 0.5007157290837235 0.47080927704829734 0.44136476808570424 0.41266120196776446 0.3849045071412156 0.3582401404319605 0.33276474960529956 0.3085363988988557 0.2855832025568683 0.26391041544063926 0.24350613575202767 0.22434581772897952 0.20639579746837725 0.18961602018253434 0.17396213324506493 0.1593870828937562 0.14584232702438618 0.13327875385598248 0.1216473769932133 0.1108998615604565 0.10098892333315779 0.09186863271924417 0.08349464759731964 0.0758243929788004 0.06881720085952069 0.06243442015244799 0.05663950399295692 0.0513980797777092 0.04667800587631448 0.0424494179155914 0.03868476678188741 0.03535884994272671 0.03244883729808721 0.029934292490851062 0.02779719040323547 0.026021931417428323 0.024595352906751185 0.023506738335851707 0.022747824275788326 0.022312805576304225 0.022312805576304225
          0.641631416413411 0.641631416413411 0.6353032371623345 0.6245967214333752 0.6099382545737877 0.5918683821785128 0.5709901104009895 0.5479211998139267 0.5232559783730798 0.49753877262214424 0.4712484653141238 0.4447922199314085 0.41850590024248463 0.39265882458225476 0.3674609172100652 0.34307083088793117 0.3196040890400248 0.29714067768904884 0.27573179619355126 0.25540566325774117 0.23617239045569746 0.21802799965773575 0.20095769024749163 0.1849384698281633 0.16994125742057106 0.15593255708546752 0.14287578631991144 0.13073232976016227 0.11946237589856622 0.10902558325303098 0.0993816128818533 0.09049055625950746 0.08231328115576982 0.0748117130830266 0.06794906588135774 0.061690031899378585 0.05600093982609929 0.05084988638694706 0.04620684671296785 0.042043767126573026 0.03833464328046196 0.03505558597568541 0.032184876521081214 0.029703013141465756 0.027592749666808816 0.025839127516970338 0.02442950181975116 0.023353562351605888 0.022603349861296338 0.02217326822047887 0.02217326822047887
          0.5921329720551155 0.5921329720551155 0.5868473604129061 0.5778735640772632 0.5655244471459858 0.5502031239751038 0.5323685302281596 0.5125020635784701 0.491079156839425 0.46854775831542406 0.445314060310122 0.42173471546591146 0.39811422588785084 0.3747060567748788 0.35171615409434653 0.32930779697023194 0.3076069950705905 0.286707895587899 0.26667787011501065 0.24756210453723188 0.22938762057911688 0.21216672529377906 0.19589992438267295 0.18057835534816385 0.16618580386301376 0.15270036635600512 0.14009581711254016 0.12834273145023006 0.11740940917378329 0.10726263536936284 0.09786830910120936 0.08919196490886785 0.0811992072084737 0.07385607372957143 0.06712934088213589 0.06098678134392935 0.05539738208294741 0.0503315293881114 0.045761166189544164 0.04165992593611366 0.038003246502819506 0.03476846697530161 0.031934909663991845 0.02948394930495576 0.027399071083680067 0.025665918852784804 0.02427233469009643 0.023208390748421452 0.022466414174172278 0.022041005712312857 0.022041005712312857
          0.5509990924809887 0.5509990924809887 0.5465027257362145 0.5388472301610172 0.5282680063357262 0.5150724399655372 0.4996164709810026 0.4822809712281262 0.46345057567364933 0.4434965783287574 0.4227644996004094 0.4015661614114813 0.3801756332675361 0.35882820488717054 0.3377215253733009 0.31701814710591114 0.2968488614537439 0.2773163704554197 0.25849897976771574 0.2404541130159784 0.2232215344040705 0.2068262278457278 0.19128092165407046 0.17658827294492901 0.16274273981822288 0.14973217568554995 0.1375391815461067 0.12614225054407385 0.11551673611828042 0.10563567136246199 0.09647046339912407 0.08799148294742438 0.08016856599735203 0.07297144165291555 0.06637009778136824 0.06033509407623766 0.05483783046558807 0.04985077742438877 0.04534767363238023 0.041303695511413 0.03769560243910673 0.03450186083472446 0.0317027498197874 0.02928045074661718 0.02721912254356377 0.025504964530838132 0.024126268103473528 0.023073458448454202 0.02233912725403174 0.021918057174863365 0.021918057174863365
          0.517035069053615 0.517035069053615 0.5131398006222821 0.5064923256231233 0.49727431807831235 0.48572567178757986 0.4721281773287672 0.4567885146179772 0.4400223653521623 0.42214088504445046 0.4034401644028235 0.3841937902843648 0.3646482509777782 0.34502072453995747 0.3254987138715954 0.306241007538561 0.28737951237000614 0.2690215925477428 0.2512526402585105 0.23413868374035432 0.21772890482198126 0.20205798900397068 0.1871482681727616 0.17301164155089238 0.15965127704213286 0.1470631050807587 0.13523712239862123 0.12415852531021729 0.11380869231964252 0.10416603488180413 0.09520673355565915 0.086905374931159 0.07923550281919953 0.07217009539601094 0.0656819783579035 0.059744182696499504 0.05433025445120851 0.04941452272329403 0.044972331325844155 0.04098023867492005 0.03741618987760645 0.03425966442247121 0.0314918024089828 0.02909551184903491 0.027055559222550714 0.025358645159070967 0.023993466839154053 0.022950768455940983 0.022223380842391057 0.02180625114853595 0.02180625114853595
          0.4893107511121365 0.4893107511121365 0.4858733868768479 0.4799962115512607 0.47182322909222946 0.4615463888723236 0.44939391510978516 0.43561780363089264 0.4204817259948908 0.40425027318201123 0.38718010228522637 0.3695132056341656 0.351472252963983 0.33325778040299725 0.3150469083638543 0.2969932449583138 0.2792276503350063 0.2618595807803632 0.2449787846859934 0.22865717575744052 0.21295075654867796 0.19790150508558332 0.1835391685303513 0.16988293121482873 0.1569429411352481 0.1447216904916872 0.13321525333092982 0.122414387888894 0.11230551369583058 0.10287157457058216 0.09409279878239185 0.08594736725274216 0.07841199994970671 0.07146246975670437 0.06507405218137985 0.059221918372616034 0.05388147807043986 0.04902867834229776 0.04464026326548189 0.04069399909780738 0.037168868931312785 0.03404524033910041 0.03130500909506486 0.028931721661888 0.026910678796580722 0.025229022308100982 0.02387580671216461 0.022842057259210676 0.02212081555836551 0.02170717377949527 0.02170717377949527
          0.4670955134755802 0.4670955134755802 0.4640043730892062 0.45871106215597507 0.45133307778388265 0.442028281217149 0.4309862970281144 0.418419076497841 0.40455149211084374 0.3896126628293532 0.3738284864695461 0.35741562890407363 0.3405770264069968 0.32349881499535127 0.306348511597054 0.2892742291389854 0.2724046997359272 0.2558498951314383 0.23970206116605003 0.2240370156598756 0.20891559159556933 0.19438513691303072 0.18048100719580762 0.16722800770195395 0.15464175684671988 0.14272995496651517 0.13149355067498764 0.12092780304164844 0.11102324178562345 0.10176653018752058 0.09314123688589632 0.08512852345444642 0.07770775488716739 0.07085704002377513 0.06455370865001384 0.05877473159324381 0.05349708966134767 0.04869809678094074 0.04435568220323514 0.04044863617684021 0.03695682304365583 0.03386136529970711 0.031144801777294662 0.028791222746480487 0.026786384400043304 0.02511780487355168 0.023774843658020052 0.02274876598390169 0.022032793489658458 0.021622142234190195 0.021622142234190195
          0.44981221606513894 0.44981221606513894 0.4469779508478166 0.4421186535207891 0.4353333075286219 0.4267557725008764 0.4165482070444061 0.40489370444665806 0.3919887646391671 0.3780361354891465 0.3632384199698803 0.3477926953354814 0.3318862514598898 0.3156934433357321 0.29937357323117314 0.2830696700340404 0.26690801165978345 0.25099823426701456 0.23543388273552443 0.22029327479122945 0.20564057207468278 0.19152697246555453 0.17799195735210893 0.1650645443845289 0.15276451027382199 0.14110355946088057 0.13008642325265313 0.11971188066369942 0.10997369708932395 0.10086148042593543 0.09236145665712694 0.08445716850198373 0.07713010168761537 0.07036024392849194 0.06412658190014199 0.058407541481902484 0.053181376385147874 0.04842651003244904 0.044121835246902566 0.04024697597545345 0.03678251492293994 0.03371019062614315 0.031013067156221895 0.028675679307322878 0.02668415581052165 0.02502632280579164 0.023691789509776143 0.022672017732764612 0.0219603766239274 0.021552183761076208 0.021552183761076208
          0.43700411702185404 0.43700411702185404 0.43435325883573417 0.42980427978604047 0.4234435708448035 0.4153885677993604 0.4057824833234513 0.3947883104597586 0.3825825646472182 0.36934918358278 0.3552739189274548 0.34053945132284863 0.32532135817075597 0.3097849746458279 0.29408311912553853 0.2783546063647745 0.2627234436324493 0.24729859310892563 0.23217418392084005 0.21743006525427275 0.20313260465938054 0.18933565035444413 0.17608159124429315 0.16340246233807068 0.15132105564866896 0.13985200721379706 0.12900283957372324 0.11877494599787532 0.10916450817329143 0.10016334318332083 0.0917596786451407 0.08393885705172477 0.07668397186366799 0.06997643887544518 0.0637965069676702 0.05812371265443836 0.05293728292330071 0.0482164908066421 0.04394096796378679 0.04009097832750053 0.03664765660166154 0.033593215106398504 0.030911122165091332 0.02858625492233422 0.026605029178289462 0.024955508525624163 0.023627494781595586 0.022612601419796645 0.02190431142316524 0.021498020705110872 0.021498020705110872
          0.42831083414887505 0.42831083414887505 0.42578112566843185 0.4214373092988537 0.41535775860950697 0.407649406653116 0.398443278607884 0.3878893459404129 0.37615107243169615 0.3633999991694936 0.3498106595836115 0.33555604143229034 0.3208037337410069 0.305712823364146 0.29043154463261067 0.27509563945512855 0.2598273544437484 0.2447349844690634 0.22991286588891685 0.21544172463398262 0.20138929165701483 0.18781110867407033 0.17475145888183605 0.16224436917080598 0.15031464145533438 0.13897888064376596 0.12824649526755014 0.11812065384655795 0.10859918576877936 0.09967541994806703 0.09133895796250324 0.08357638094126525 0.07637189132259686 0.06970789189523421 0.06356550538538619 0.0579250383652197 0.05276639352127434 0.04806943439946134 0.043814306689576636 0.03998171996650083 0.036553193597406525 0.03351127027631741 0.030839700375052313 0.02852360001396881 0.026549585464439533 0.024905886202355558 0.023582438640636073 0.022570962278776727 0.021865019714797665 0.021460061658350408 0.021460061658350408
          0.4234507850606085 0.4234507850606085 0.4209876788709093 0.41675665111055554 0.41083179441661216 0.4033144006573555 0.3943289179766821 0.38401825726175753 0.3725387684411116 0.3600551966361379 0.34673588584756126 0.33274843775529894 0.31825596634761 0.3034140243571281 0.28836822109624527 0.2732525067033109 0.2581880660778021 0.24328274617153262 0.2286309310086097 0.21431377754173775 0.20039972988996424 0.1869452375565045 0.17399561318853898 0.16158597602609598 0.14974223749861848 0.13848209490161853 0.127816007417291 0.11774813581628149 0.1082772330048612 0.09939747725318135 0.0910992435888213 0.08336981161465168 0.07619401005974633 0.06955479983468708 0.06343379836016319 0.05781174857438892 0.05266893638684173 0.04798556050295622 0.043742058551966195 0.039919393350951383 0.036499302964985214 0.03346451800047505 0.03079894931418198 0.028487849046762034 0.026517947605882865 0.024877568936069867 0.02355672612432345 0.02254719910400294 0.021842595929780797 0.02143839875976024 0.02143839875976024
          0.4234507850606085 0.4234507850606085 0.4209876788709093 0.41675665111055554 0.41083179441661216 0.4033144006573555 0.3943289179766821 0.38401825726175753 0.3725387684411116 0.3600551966361379 0.34673588584756126 0.33274843775529894 0.31825596634761 0.3034140243571281 0.28836822109624527 0.2732525067033109 0.2581880660778021 0.24328274617153262 0.2286309310086097 0.21431377754173775 0.20039972988996424 0.1869452375565045 0.17399561318853898 0.16158597602609598 0.14974223749861848 0.13848209490161853 0.127816007417291 0.11774813581628149 0.1082772330048612 0.09939747725318135 0.0910992435888213 0.08336981161465168 0.07619401005974633 0.06955479983468708 0.06343379836016319 0.05781174857438892 0.05266893638684173 0.04798556050295622 0.043742058551966195 0.039919393350951383 0.036499302964985214 0.03346451800047505 0.03079894931418198 0.028487849046762034 0.026517947605882865 0.024877568936069867 0.02355672612432345 0.02254719910400294 0.021842595929780797 0.02143839875976024 0.02143839875976024
        </DataArray>
      </PointData>
      <CellData/>
    </Piece>
  </ImageData>
</VTKFile>
