<?xml version="1.0"?>
<VTKFile type="ImageData" version="0.1" byte_order="LittleEndian">
  <ImageData WholeExtent="0 50 0 25 0 0" Origin="0.0 0.0 0.0" Spacing="0.02 0.02 1.0">
    <Piece Extent="0 50 0 25 0 0">
      <PointData Scalars="Density">
        <DataArray type="Float32" Name="Density" format="ascii">
          10.0 7.354895856952274 5.557390965095733 4.384716329174138 3.6003479003138015 3.054244252243883 2.658262443591381 2.360387067255658 2.1290461852001537 1.944402385871058 1.7935507478279877 1.6678189280056517 1.5612050944634617 1.4694455662269852 1.3894408406659464 1.3188917052779014 1.256062137745659 1.199620878685469 1.1485331075709047 1.1019848061273667 1.0593289268359958 1.0200464079444416 0.983717489149281 0.9500002988999783 0.9186146576418919 0.8893296780334436 0.8619541671520352 0.8363291227321022 0.8123218128074463 0.7898210657516364 0.7687334949865112 0.7489804522568175 0.7304955537992283 0.7132226606687924 0.6971142218234206 0.6821299090047903 0.6682354878801902 0.6554018816603053 0.6436043924378431 0.6328220524906745 0.6230370832631593 0.6142344440499372 0.60640145583166 0.5995274884569044 0.5936037015835489 0.5886228316038478 0.5845790182706708 0.5814676659882619 0.5792853357911945 0.5780296650093516 0.5780296650093516
          10.0 7.354895856952274 5.557390965095733 4.384716329174138 3.6003479003138015 3.054244252243883 2.658262443591381 2.360387067255658 2.1290461852001537 1.944402385871058 1.7935507478279877 1.6678189280056517 1.5612050944634617 1.4694455662269852 1.3894408406659464 1.3188917052779014 1.256062137745659 1.199620878685469 1.1485331075709047 1.1019848061273667 1.0593289268359958 1.0200464079444416 0.983717489149281 0.9500002988999783 0.9186146576418919 0.8893296780334436 0.8619541671520352 0.8363291227321022 0.8123218128074463 0.7898210657516364 0.7687334949865112 0.7489804522568175 0.7304955537992283 0.7132226606687924 0.6971142218234206 0.6821299090047903 0.6682354878801902 0.6554018816603053 0.6436043924378431 0.6328220524906745 0.6230370832631593 0.6142344440499372 0.60640145583166 0.5995274884569044 0.5936037015835489 0.5886228316038478 0.5845790182706708 0.5814676659882619 0.5792853357911945 0.5780296650093516 0.5780296650093516
          10.0 6.716894519154115 5.072639960376828 4.078685313628248 3.4115014712738216 2.9352994781807515 2.5808133444972756 2.3081549015660574 2.0926451131786283 1.918284657730001 1.7743331790101464 1.6533705233780709 1.550141190588258 1.4608401145004668 1.3826580251930383 1.3134845157324733 1.2517095494021675 1.1960879114382952 1.1456448057651356 1.0996089023275846 1.057364050278882 1.018413910563006 0.9823556794899334 0.9488603086487577 0.9176574341848802 0.888523766058412 0.8612740513421284 0.8357539749526249 0.8118345346382985 0.7894075492576027 0.7683820465594112 0.748681339590172 0.7302406467545037 0.7130051443970853 0.6969283659716777 0.681970880804005 0.6680991998226342 0.6552848666259148 0.643503700736972 0.6327351664998051 0.6229618462471987 0.6141690004649754 0.6063442009401403 0.5994770255029054 0.5935588050986247 0.5885824156656516 0.5845421087345839 0.581433375871159 0.5792528431164738 0.5779981924886411 0.5779981924886411
          5.023277008825191 5.023277008825191 4.261945598528548 3.634125981588452 3.1459374312861046 2.7671271441685863 2.469476987177717 2.231713294685563 2.0385182924118768 1.8789334011874799 1.7450688808551855 1.631180930834188 1.533033651697355 1.4474611665927002 1.3720661221316215 1.3050103633633525 1.244868018008061 1.1905211260697488 1.1410845521493633 1.095851276294816 1.0542520350269426 1.0158251900062905 0.9801939741564478 0.9470491222870998 0.9161354766843146 0.8872415594547045 0.8601913824641111 0.8348379618502006 0.8110581434169308 0.78874844522081 0.7678216961588289 0.7482043024428604 0.7298340130666428 0.7126580846196644 0.6966317678056396 0.6817170547175647 0.6678816386924115 0.6550980484167775 0.6433429256088053 0.632596421595996 0.6228416928387344 0.614064479210287 0.6062527518573546 0.5993964198987227 0.5934870872013389 0.5885178521019839 0.5844831442954689 0.5813785942477092 0.579200931462487 0.5779479087710155 0.5779479087710155
          3.9205981189628485 3.9205981189628485 3.5689338905146064 3.1974480926149713 2.863086054931359 2.578060475523816 2.3392671528385733 2.1395776797563375 1.9717308160651994 1.8294754791066103 1.7077498225229162 1.6025548292508296 1.5107585795621516 1.4299104652933043 1.3580869918451697 1.2937705611638408 1.2357564355052264 1.1830820139383833 1.1349731800841707 1.0908035101897386 1.050063113949057 1.012334688814877 0.9772749924101615 0.9446004047267983 0.9140755963916287 0.8855045719360165 0.8587235420301295 0.8335952143915326 0.8100041930503188 0.7878532496481336 0.7670602855345143 0.7475558446916617 0.729281068638695 0.7121860080929024 0.6962282242258093 0.681371626252309 0.6675855028631498 0.6548437134158335 0.6431240114011956 0.6324074779243261 0.6226780470958762 0.6139221085627198 0.6061281750977909 0.5992866053573371 0.5933893737077818 0.5884298805077591 0.5844027974696013 0.581303943770817 0.5791301894813743 0.577879383649237 0.577879383649237
          3.225986739788895 3.225986739788895 3.0481186270914353 2.8254184773141966 2.5998731026534503 2.390575514197013 2.2039168950186134 2.040312345729517 1.8977514780995572 1.7734859754926395 1.6647662815875295 1.5691247779874633 1.4844536225941583 1.4089958156160987 1.341304344431503 1.2801937726591117 1.2246943345487087 1.1740120466933421 1.1274954755537818 1.0846086426269967 1.0449091738675553 1.0080307630725789 0.9736691137553033 0.9415706571373492 0.9115234755360879 0.8833499758261993 0.8569009532138314 0.8320507623272942 0.8086933732720665 0.786739137775905 0.766112127561708 0.7467479359037288 0.7285918557793746 0.711597365567565 0.6957248669865059 0.6809406307729237 0.6672159141446687 0.65452622086782 0.6428506801581557 0.6321715249850022 0.6224736538440006 0.6137442629030039 0.6059725377408713 0.5991493958007063 0.5932672722521326 0.5883199432687257 0.5843023818302068 0.5812106420973906 0.5790417692158554 0.5777937321101271 0.5777937321101271
          2.763054221594159 2.763054221594159 2.6633888371602272 2.5242726858335507 2.3704221149634597 2.217292306440792 2.0729284959956287 1.9406898955738727 1.8213283080603742 1.714291852774138 1.618465667109242 1.5325645620820239 1.4553268957429357 1.3856004721183144 1.322372274516059 1.264770481139303 1.2120539323321382 1.1635968942680766 1.1188730076415083 1.07744021417023 1.0389273698302346 1.0030227131237983 0.969464103559104 0.9380308414964074 0.9085368513623093 0.8808250166001012 0.8547624761214947 0.8302367180955318 0.8071523326836985 0.785428308653706 0.7649957789593891 0.7457961373371924 0.7277794620240725 0.7109031942386876 0.6951310284895922 0.6804319794500517 0.6667795963894272 0.6541513012449691 0.6425278305770588 0.6318927650559364 0.6222321329246959 0.6135340761893239 0.6057885701963881 0.598987188848721 0.5931229090405146 0.5881899490154047 0.5841836363048344 0.5811003017224958 0.5789371966013824 0.5776924310860706 0.5776924310860706
          2.436006919994009 2.436006919994009 2.374945271787523 2.283751615696852 2.176313481340776 2.0632976348125784 1.9516337585289938 1.845253203472503 1.7460415041394235 1.6546216315409086 1.57089958058154 1.4944118421725874 1.4245336196347718 1.3605971393365435 1.3019548502426723 1.2480101054654147 1.1982293199682046 1.1521440055606882 1.1093476040598187 1.0694899326701928 1.0322708047645122 0.9974336585436389 0.9647596062999835 0.934062080867234 0.9051821269503644 0.8779843180471898 0.8523532478766118 0.8281905329891099 0.8054122614868995 0.783946826327374 0.7637330875947561 0.7447188147937502 0.7268593668011518 0.710116573197831 0.6944577861281918 0.6798550765624338 0.6662845529009495 0.6537257833228982 0.6421613062158645 0.6315762155039222 0.6219578097855712 0.6132952959616547 0.6055795395294459 0.5988028549879403 0.5929588308797028 0.5880421849190229 0.5840486454523849 0.5809748561888755 0.5788183017452506 0.5775772520903579 0.5775772520903579
          2.1939851666303567 2.1939851666303567 2.1537996835783892 2.0911854656788087 2.014025513853626 1.929317531687249 1.8423342368876081 1.7566134525489359 1.6742920692728536 1.5965019919203056 1.5237096630642823 1.4559694078960028 1.3930980016909793 1.3347885844136282 1.280681771489902 1.2304081150507356 1.1836120844626385 1.1399644767491817 1.0991677901088452 1.060957460510998 1.0251007792696698 0.9913946094015926 0.9596625732855405 0.9297521047920658 0.9015315860605382 0.8748876834933296 0.8497229342308789 0.8259535973916656 0.8035077636119341 0.7823237055595261 0.7623484471628726 0.7435365278307289 0.7258489384257013 0.709252207271599 0.6937176164670463 0.6792205309207853 0.6657398246341997 0.6532573907367251 0.6417577235847907 0.6312275628501978 0.621655590952129 0.6130321764403566 0.6053491570322123 0.5985996569604753 0.592777934121651 0.587879253241206 0.5838997819100622 0.5808365069094438 0.5786871687421351 0.5774502127391292 0.5774502127391292
          2.0085044680612643 2.0085044680612643 1.9805232488798148 1.9357125529375645 1.878689502522608 1.8140040264017692 1.7454756423343292 1.6759802922017428 1.6075037953388793 1.5413074597695218 1.4781137573407912 1.4182696254634002 1.3618742693620183 1.3088723879276987 1.2591189365236395 1.212422407373679 1.1685727356003144 1.12735859668219 1.0885775856466946 1.0520417348026923 1.0175800529737349 0.9850392158762806 0.9542831531452289 0.9251920161446752 0.8976608354893896 0.8715980611339522 0.846924101818302 0.8235699313546678 0.8014757976968935 0.7805900508903781 0.7608680938138739 0.7422714524076126 0.7247669580609707 0.708326032839374 0.6929240674996306 0.6785398822772065 0.665155260906259 0.6527545490474986 0.6413243091205642 0.6308530243867004 0.6213308459568112 0.6127493771830563 0.6051014906161186 0.5983811733705369 0.5925833973377953 0.5877040112248577 0.5837396518800625 0.5806876728050645 0.5785460881475774 0.5773135308317882 0.5773135308317882
          1.8625767585925737 1.8625767585925737 1.8421942302960042 1.8089428900669202 1.7656316647040646 1.7152482472178536 1.6605135067364027 1.6036602632287398 1.5463820850400312 1.4898800416432063 1.4349509110739151 1.3820823364092136 1.3315378987510853 1.2834260315869237 1.2377524844097896 1.1944585452842114 1.1534479415520775 1.114605201608427 1.0778078054086895 1.0429339377523776 1.0098671974860765 0.9784992424847438 0.9487310648295497 0.9204733800493063 0.8936464626974479 0.8681796532542498 0.8440106864039862 0.8210849389413502 0.7993546601018772 0.7787782230658328 0.7593194202533697 0.740946814348056 0.723633150037156 0.7073548270473227 0.6920914323594741 0.677825327939289 0.6645412895311225 0.6522261917676027 0.6408687348644211 0.6304592083782103 0.6209892878236163 0.6124518603201831 0.6048408758358653 0.5981512209902109 0.5923786127636479 0.5875195098229039 0.5835710395133673 0.5805309388868023 0.5783975084285694 0.5771695774247644 0.5771695774247644
          1.7454846490515896 1.7454846490515896 1.730076836100101 1.7046117089647899 1.6708647660086444 1.6308343351170993 1.5864577014316077 1.5394343648512507 1.4911487897314264 1.4426634245758263 1.3947515784768634 1.3479471347003757 1.302596741527962 1.2589070020908735 1.2169837006439046 1.176862665133256 1.1385331053025205 1.1019547188151444 1.067069896476855 1.0338122086804926 1.002112144234268 0.9719008621583864 0.9431125332594097 0.9156856989094607 0.8895639581907114 0.8646962066437427 0.8410365847058662 0.818544246365499 0.7971830242468756 0.7769210428281204 0.7577303141420522 0.7395863381324763 0.7224677213781736 0.7063558220863426 0.6912344253255737 0.6770894498605932 0.6639086862699961 0.6516815649907793 0.640398952338874 0.6300529722609102 0.6206368514792564 0.6121447857301084 0.6045718249146474 0.597913775152823 0.5921671159257837 0.5873289307015629 0.5833968496499793 0.5803690032611917 0.5782439858849786 0.5770208284034232 0.5770208284034232
          1.6501423146257137 1.6501423146257137 1.6381244738785292 1.618072373948226 1.591149454237454 1.5587220480664912 1.5221808674499018 1.4828121978485447 1.4417248241900844 1.3998230815558101 1.3578112276091967 1.3162153955979123 1.275412910462126 1.2356624724185368 1.1971316759148038 1.1599203464508818 1.124079387321561 1.0896254643894578 1.0565521293362095 1.0248380457328106 0.9944529398621934 0.965361810963914 0.9375278373749923 0.9109143227450658 0.8854859470682539 0.8612095223707691 0.8380544016351745 0.8159926500093574 0.7949990573854258 0.775051049027492 0.756128534353962 0.7382137218361966 0.7212909191548839 0.7053463314045084 0.6903678656064376 0.6763449465951894 0.6632683471175177 0.651130033461538 0.6399230269157465 0.6296412807007601 0.6202795716145888 0.611833405408811 0.6042989348130268 0.5976728891089373 0.5919525141952932 0.5871355221609593 0.5832200494818733 0.5802046230693346 0.5780881335157811 0.5768698150060614 0.5768698150060614
          1.571681022702323 1.571681022702323 1.5620486615932478 1.5458613077449899 1.5239070208470697 1.497141943070492 1.466577459470899 1.4331897270304363 1.3978596723060734 1.3613418840515543 1.3242559530567868 1.2870926920577592 1.2502286400535323 1.2139439880315128 1.1784407813148918 1.1438596260494809 1.110294087062766 1.0778025671213503 1.0464177958996546 1.016154218626896 0.9870136280570398 0.9589893770336528 0.9320694733091066 0.9062388118285482 0.8814807525398263 0.8577782089222024 0.8351143757994892 0.8134731949282614 0.79283963282576 0.7731998264893681 0.7545411381528448 0.7368521491743175 0.7201226148196379 0.704343395479655 0.6895063752479278 0.6756043753970191 0.6626310678241472 0.6505808917581568 0.6394489757523624 0.6292310660980357 0.6199234621805643 0.6115229588895008 0.6040267959290349 0.5974326137156234 0.5917384154642692 0.5869425350321371 0.5830436100918068 0.580040560234941 0.5779325696523533 0.5767190740926144 0.5767190740926144
          1.506647615495298 1.506647615495298 1.4987376862634931 1.4853712213015526 1.4670985263501728 1.444604505947726 1.4186363403543543 1.3899407181170598 1.3592174582514938 1.3270907647742867 1.2940957870524112 1.260676622807764 1.2271917892856616 1.1939238256729947 1.1610905740121054 1.128856527514687 1.097343309863522 1.0666388320340003 1.0368049878648995 1.007883935652491 0.9799031095314866 0.9528791432631798 0.9268208936680253 0.9017317371852369 0.8776112909956162 0.8544566857947542 0.8322634939277451 0.8110263957663044 0.7907396494873135 0.7713974148018252 0.7529939694099123 0.7355238476306376 0.7189819233684195 0.7033634539443058 0.6886640970079431 0.6748799094711773 0.6620073349365769 0.6500431842485648 0.6389846124249726 0.6288290942184335 0.619574399821528 0.611218571699113 0.6037599031538069 0.5971969189668761 0.5915283582769806 0.5867531597411173 0.5828704489489017 0.5798795280206617 0.5777798673024563 0.5765710990702491 0.5765710990702491
          1.452527703136572 1.452527703136572 1.4458870977528373 1.4346166690527762 1.4191117573008374 1.3998744994133145 1.3774666240694313 1.3524658849972988 1.3254311726975807 1.296878217099937 1.267265429296585 1.2369880919534002 1.2063786416131235 1.1757108890577794 1.145206410557466 1.1150418105406836 1.0853559893753117 1.0562568985801346 1.027827520262938 1.0001309785665258 0.973214796421366 0.9471143692810562 0.9218557542668404 0.8974578801014391 0.8739342787572976 0.8512944294770034 0.8295447932686888 0.808689603214968 0.7887314640798365 0.7696718042683377 0.7515112143412023 0.7342496989620315 0.717886863208288 0.7024220494203859 0.6878544370017818 0.674183114637 0.6614071321055397 0.6495255371032896 0.6385374011283018 0.6284418374544408 0.619238013432397 0.6109251587657311 0.6035025709652602 0.5969696188533009 0.5913257447430686 0.5865704657370678 0.5827033744556315 0.5797241394105959 0.5776325051700624 0.576428292411056 0.576428292411056
          1.407449979655627 1.407449979655627 1.401759516286034 1.3920681269796846 1.3786676067627175 1.3619347510147986 1.3422999098810806 1.3202165100969974 1.2961350675923407 1.2704834909427012 1.2436539848705999 1.215995858582553 1.1878130382898855 1.1593649624881628 1.1308696559113767 1.1025080077879092 1.07442853554741 1.046752147397219 1.019576604982396 0.992980526782804 0.9670268691164576 0.9417658832392242 0.9172375830339191 0.8934737759914483 0.8704997167718447 0.8483354421289343 0.8269968415404041 0.8064965115842178 0.7868444352408162 0.7680485206349379 0.7501150276593097 0.7330489056155762 0.7168540605002522 0.701533566813686 0.6870898356991413 0.6735247487343883 0.6608397647065987 0.6490360051168176 0.6381143229070148 0.6280753579159462 0.6189195817959277 0.6106473345168363 0.6032588541104638 0.5967543009390581 0.5911337774836722 0.5863973444227114 0.5825450335945979 0.5795768582994876 0.577492821284576 0.5762929206686376 0.5762929206686376
          1.3699962398706518 1.3699962398706518 1.3650248570670351 1.3565345206195973 1.3447463857063584 1.3299499599590394 1.3124816917588067 1.2927033737341185 1.2709827738143966 1.2476779627287886 1.2231258903461226 1.1976350606637451 1.1714817240262827 1.1449088163384153 1.118126861303389 1.091316141769805 1.0646295824773069 1.0381959300078658 1.0121229446513325 0.9865004237088022 0.9614029548584851 0.9368923541656031 0.9130197804218326 0.8898275402991365 0.8673506113608842 0.8456179155847109 0.8246533772152229 0.8044767972774869 0.785104574177542 0.7665502963012967 0.7488252288989459 0.7319387140977338 0.7158984997704354 0.700711010260141 0.6863815696299705 0.6729145861453445 0.6603137050678552 0.6485819354997557 0.6377217559229788 0.6277352021860101 0.6186239409700308 0.6103893311815956 0.6030324752467198 0.5965542618988827 0.5909554017433247 0.5862364566275354 0.5823978636411133 0.5794399543976285 0.5773629701087433 0.576167072840147 0.576167072840147
          1.3390755526015143 1.3390755526015143 1.3346516883167574 1.3270794854944208 1.3165311168496703 1.303234563213578 1.2874586854544252 1.2694976608070538 1.2496564291507597 1.228238279525984 1.2055351507350998 1.181820746118404 1.157346229507668 1.132338081807287 1.1069976296024655 1.0815017715360014 1.056004489633219 1.0306388138705684 1.0055189908471225 0.9807426811568866 0.9563930705206717 0.9325408261783679 0.909245863762716 0.8865589130529097 0.8645228859940779 0.8431740593187397 0.8225430888093547 0.8026558740946368 0.7835342929143243 0.7651968227566736 0.7476590661756191 0.7309341942620067 0.7150333208826349 0.6999658185328959 0.6857395850369152 0.672361268899569 0.6598364598711759 0.648169850218653 0.6373653712903404 0.6274263091966796 0.6183554027863265 0.6101549265589167 0.6028267607051152 0.59637245008728 0.5907932536574398 0.5860901855426381 0.5822640488018943 0.5793154626663675 0.577244883908226 0.5760526228384268 0.5760526228384268
          1.313838732359111 1.313838732359111 1.3098318564230649 1.3029610983205482 1.2933642947987387 1.2812257294141005 1.2667654475002341 1.2502277996864293 1.231870344798464 1.211953962105703 1.1907346865372002 1.1684574668388223 1.1453518016810924 1.1216290477210507 1.0974811103014606 1.0730802045380061 1.0485793919255761 1.0241136374131463 0.999801180614056 0.9757450634860179 0.9520347003582805 0.9287474123585839 0.905949876688743 0.8836994624402565 0.8620454398322241 0.841030060118763 0.8206895101040197 0.8010547492064081 0.7821522391241124 0.7640045769818085 0.7466310428360099 0.730048071907268 0.7142696611162966 0.6993077185787404 0.6851723637571192 0.6718721850383158 0.65941446063488 0.6478053479154641 0.6370500455598617 0.6271529323066131 0.6181176855112906 0.6099473822545644 0.6026445853233848 0.5962114160283339 0.5906496155079081 0.5859605958993318 0.5821454825191346 0.5792051479895799 0.5771402390641212 0.5759511967417603 0.5759511967417603
          1.2936189014770476 1.2936189014770476 1.2899272449779267 1.2835880484339297 1.2747149929940604 1.2634613002895323 1.250011846543957 1.2345745019416412 1.2173714858033757 1.1986313755510998 1.1785822037903735 1.1574458712945437 1.13543392746729 1.112744640163152 1.089561195802954 1.0660508319870254 1.042364697806377 1.0186382508788911 0.9949920254584277 0.9715326357867604 0.9483539085327857 0.9255380649952858 0.9031568964786658 0.8812728945823055 0.8599403123320946 0.8392061426664589 0.8191110084040278 0.7996899630890932 0.7809732055885492 0.7629867134644113 0.7457528013409582 0.7292906110129953 0.7136165401184108 0.6987446159832698 0.684686820855412 0.6714533742529366 0.6590529776217119 0.6474930259573073 0.6367797905243626 0.6269185763140295 0.6179138574248813 0.6097693931374821 0.6024883270776691 0.5960732715267321 0.5905263786353117 0.5858494000284834 0.5820437360486173 0.5791104756665566 0.5770504278973184 0.575864145381062 0.575864145381062
          1.2778894092195618 1.2778894092195618 1.274431581319615 1.2684874469025769 1.26015381895698 1.249562052402827 1.2368720030975373 1.2222652562509353 1.2059381926767343 1.1880953789953415 1.1689436434703664 1.1486870620974114 1.1275229529973858 1.1056388750746593 1.0832105546132222 1.0604006199450675 1.0373580047649793 1.0142178788759115 0.9911019750344828 0.968119196994363 0.9453664129542537 0.9229293577842613 0.9008835850443118 0.8792954251160283 0.8582229184761255 0.8377167033102866 0.8178208445517747 0.7985735973601721 0.7800081023804931 0.7621530131683173 0.7450330582196325 0.7286695413461023 0.7130807848833149 0.6982825205661481 0.6842882329714135 0.6711094603041956 0.6587560570582156 0.6472364227613192 0.6365577006599259 0.6267259498254455 0.6177462937976884 0.6096230485257851 0.6023598320323663 0.5959596579149922 0.590425014511132 0.585757931288994 0.5819600337847537 0.5790325881854059 0.5769765364539244 0.5757925227098312 0.5757925227098312
          1.2662335901039559 1.2662335901039559 1.2629426888211688 1.2572809801812437 1.249333805824299 1.2392175601114028 1.2270748426103888 1.2130689331489184 1.1973780154238032 1.1801895315706736 1.1616949724105323 1.1420853146982055 1.1215472238237643 1.1002600594510696 1.0783936585825271 1.05610682708136 1.0335464452160499 1.01084708206403 0.9881310137918033 0.9655085482567283 0.943078569970324 0.9209292328682889 0.899138741900352 0.8777761771393788 0.8569023253380925 0.8365704933939523 0.8168272860012078 0.7977133359913157 0.7792639806760611 0.7615098811256444 0.7444775839494204 0.7281900269960521 0.7126669916243321 0.6979255049608759 0.6839801959752884 0.670843609362598 0.6585264812014683 0.6470379802125007 0.6363859182173031 0.6265769331279725 0.6176166475016064 0.6095098053916411 0.6022603899284548 0.595871723772764 0.5903465543111736 0.5856871252056611 0.5818952356680889 0.5789722886060344 0.5769193285757426 0.5757370702833742 0.5757370702833742
          1.2583227931298882 1.2583227931298882 1.2551421427938396 1.2496671350162132 1.2419758087732211 1.232174992629367 1.220396186903406 1.2067908139705816 1.1915251744487385 1.1747754258778884 1.1567228495006894 1.1375496032390062 1.1174350871557068 1.0965529809879322 1.0750689576977273 1.0531390351218723 1.0309084998741862 1.0085113221331452 0.9860699744321569 0.9636955694099643 0.9414882381952726 0.919537680609526 0.8979238290685077 0.8767175788063144 0.8559815470953531 0.835770833073289 0.8161337574270874 0.7971125675007273 0.7787440984634698 0.7610603851321298 0.7440892220407349 0.7278546715545922 0.712377521384318 0.6976756939036839 0.6837646103291825 0.6706575131756206 0.6583657505393175 0.6468990257411074 0.636265615733912 0.62647256148136 0.6175258332725425 0.6094304736738122 0.6021907205459943 0.5958101122843116 0.5902915771751489 0.5856375085121288 0.5818498268753062 0.5789300307506667 0.5768792364475749 0.5756982080477656 0.5756982080477656
          1.2539003339354928 1.2539003339354928 1.250780289866415 1.2454079139119358 1.2378573460656392 1.2282302773653289 1.2166522188405118 1.203268163976725 1.188237936923119 1.1717315092554679 1.153924529589779 1.1349942556575312 1.1151160176291535 1.094460282600482 1.0731903389077562 1.0514605784470217 1.0294153263856847 1.0071881498982722 0.9849015691832438 0.9626670929338186 0.9405855045204585 0.9187473324937424 0.8972334480797325 0.8761157419441465 0.8554578418331593 0.8353158412469026 0.8157390167925288 0.796770518195024 0.7784480201301467 0.7608043291706859 0.7438679423288244 0.7276635560724207 0.7122125264295396 0.6975332820016144 0.6836416924944703 0.6705513958447753 0.6582740872474334 0.6468197734419221 0.636196995543945 0.6264130235528967 0.617474025455797 0.6093852136070421 0.6021509708068447 0.5957749582410256 0.5902602071885932 0.5856091961561637 0.5818239148625084 0.5789059162729792 0.5768563576667476 0.5756760314679304 0.5756760314679304
          1.2539003339354928 1.2539003339354928 1.250780289866415 1.2454079139119358 1.2378573460656392 1.2282302773653289 1.2166522188405118 1.203268163976725 1.188237936923119 1.1717315092554679 1.153924529589779 1.1349942556575312 1.1151160176291535 1.094460282600482 1.0731903389077562 1.0514605784470217 1.0294153263856847 1.0071881498982722 0.9849015691832438 0.9626670929338186 0.9405855045204585 0.9187473324937424 0.8972334480797325 0.8761157419441465 0.8554578418331593 0.8353158412469026 0.8157390167925288 0.796770518195024 0.7784480201301467 0.7608043291706859 0.7438679423288244 0.7276635560724207 0.7122125264295396 0.6975332820016144 0.6836416924944703 0.6705513958447753 0.6582740872474334 0.6468197734419221 0.636196995543945 0.6264130235528967 0.617474025455797 0.6093852136070421 0.6021509708068447 0.5957749582410256 0.5902602071885932 0.5856091961561637 0.5818239148625084 0.5789059162729792 0.5768563576667476 0.5756760314679304 0.5756760314679304
        </DataArray>
      </PointData>
      <CellData/>
    </Piece>
  </ImageData>
</VTKFile>
